ITEM: TIMESTEP
1000
ITEM: NUMBER OF ATOMS
3000
ITEM: BOX BOUNDS pp pp pp
-2.4896647158714991e+01 2.4017981158708238e+01
-2.4271314158711636e+01 2.4643314158711636e+01
-2.4458313158708236e+01 2.4456315158714993e+01
ITEM: ATOMS id mol type element xs ys zs
1 1 2 H 0.0966903 0.0435535 0.116933
2 1 3 O 0.0790378 0.0500307 0.112501
3 1 1 CH3 0.0816553 0.0764356 0.100233
301 101 2 H 0.154937 0.0487855 0.0950959
302 101 3 O 0.170024 0.0524444 0.0835977
303 101 1 CH3 0.192752 0.0365058 0.0927624
603 201 1 CH3 0.240619 0.0684681 0.0361727
601 201 2 H 0.259755 0.073465 0.00160376
602 201 3 O 0.26002 0.0604124 0.0158433
901 301 2 H 0.404128 0.0463946 0.0423225
902 301 3 O 0.409509 0.0440441 0.023918
903 301 1 CH3 0.408022 0.0155899 0.0173806
1201 401 2 H 0.439681 0.119592 0.978238
1202 401 3 O 0.454757 0.130616 0.973298
1203 401 1 CH3 0.449982 0.141419 0.946557
1501 501 2 H 0.613842 0.0789287 0.0678665
1502 501 3 O 0.601787 0.0647888 0.0731547
1503 501 1 CH3 0.58684 0.0736504 0.0966629
1801 601 2 H 0.605428 0.0277366 0.0557822
1802 601 3 O 0.611403 0.0103347 0.0498932
1803 601 1 CH3 0.61894 0.0121633 0.0217074
2103 701 1 CH3 0.719991 0.0854868 0.0171058
2101 701 2 H 0.744859 0.115302 0.0259846
2102 701 3 O 0.745262 0.0999151 0.0143107
2401 801 2 H 0.89547 0.0510651 0.0923502
2402 801 3 O 0.877553 0.0571501 0.0884576
2403 801 1 CH3 0.866753 0.0700804 0.112348
2701 901 2 H 0.945615 0.0503795 0.110991
2702 901 3 O 0.933474 0.0453432 0.0968328
2703 901 1 CH3 0.948956 0.0331628 0.0752335
31 11 2 H 0.0939763 0.201213 0.0829954
32 11 3 O 0.0851449 0.18508 0.0889072
33 11 1 CH3 0.0580267 0.184818 0.077993
61 21 2 H 0.109301 0.239271 0.104334
63 21 1 CH3 0.0964092 0.272537 0.08663
331 111 2 H 0.219752 0.173702 0.0128516
332 111 3 O 0.21808 0.17002 0.0317419
333 111 1 CH3 0.209802 0.142181 0.035069
361 121 2 H 0.151686 0.191128 0.0258747
633 211 1 CH3 0.276513 0.202795 0.0842772
363 121 1 CH3 0.123849 0.176088 0.00168681
663 221 1 CH3 0.212119 0.265538 0.044556
631 211 2 H 0.274427 0.182186 0.0502612
632 211 3 O 0.284372 0.18075 0.0667609
661 221 2 H 0.244103 0.284092 0.0297587
931 311 2 H 0.387678 0.0711668 0.0899146
932 311 3 O 0.384294 0.0595043 0.0748901
933 311 1 CH3 0.362212 0.0706338 0.059298
961 321 2 H 0.407488 0.0815157 0.135039
963 321 1 CH3 0.390787 0.117649 0.136319
1231 411 2 H 0.470238 0.204457 0.0189301
1232 411 3 O 0.461205 0.221461 0.0205088
1233 411 1 CH3 0.437497 0.217852 0.0372263
1261 421 2 H 0.4939 0.250534 0.0279844
1263 421 1 CH3 0.530711 0.265721 0.0286806
1531 511 2 H 0.630225 0.0521227 0.957666
1532 511 3 O 0.63886 0.0625754 0.971428
1533 511 1 CH3 0.641782 0.0900139 0.961774
1561 521 2 H 0.491028 0.239789 0.0840223
1563 521 1 CH3 0.474062 0.260054 0.113816
1831 611 2 H 0.612803 0.134768 0.0737006
1832 611 3 O 0.624984 0.120262 0.0699056
1833 611 1 CH3 0.647962 0.131006 0.0553731
1861 621 2 H 0.607966 0.2622 0.137872
2133 711 1 CH3 0.720767 0.167354 0.0563171
1863 621 1 CH3 0.633014 0.233203 0.127012
2163 721 1 CH3 0.805369 0.19412 0.128837
2131 711 2 H 0.753442 0.178087 0.0362348
2132 711 3 O 0.748605 0.163694 0.0481787
2161 721 2 H 0.793907 0.225645 0.107365
2431 811 2 H 0.814767 0.110409 0.0428142
2432 811 3 O 0.822102 0.121522 0.0288175
2433 811 1 CH3 0.851266 0.11991 0.0300202
2461 821 2 H 0.8798 0.276991 0.0891386
2463 821 1 CH3 0.879304 0.237171 0.0896509
2731 911 2 H 0.950903 0.144586 0.114866
2732 911 3 O 0.963849 0.15827 0.110582
2733 911 1 CH3 0.988424 0.145281 0.101527
2761 921 2 H 0.927526 0.295127 0.113713
2763 921 1 CH3 0.923354 0.330345 0.0955893
62 21 3 O 0.103409 0.244154 0.086595
91 31 2 H 0.0217732 0.33733 0.0875981
92 31 3 O 0.0306057 0.32053 0.0840001
93 31 1 CH3 0.01167 0.298833 0.0890241
362 121 3 O 0.150294 0.175841 0.0141455
391 131 2 H 0.108385 0.383905 0.0315066
392 131 3 O 0.0941311 0.378802 0.0195067
393 131 1 CH3 0.0692306 0.377379 0.0347555
693 231 1 CH3 0.238921 0.333798 0.0967552
662 221 3 O 0.230027 0.288526 0.0422252
691 231 2 H 0.218022 0.3188 0.0663504
692 231 3 O 0.216342 0.333973 0.0781888
962 321 3 O 0.398072 0.0928924 0.122585
991 331 2 H 0.395685 0.43997 0.00396253
992 331 3 O 0.399258 0.429736 0.987972
993 331 1 CH3 0.380266 0.437894 0.9673
1262 421 3 O 0.506822 0.254959 0.0416459
1291 431 2 H 0.406977 0.316351 0.0519657
1292 431 3 O 0.425855 0.320388 0.0526914
1293 431 1 CH3 0.440628 0.297654 0.04176
1562 521 3 O 0.481498 0.235273 0.100208
1591 531 2 H 0.509156 0.385449 0.0645677
1592 531 3 O 0.52652 0.378535 0.069457
1593 531 1 CH3 0.522749 0.353592 0.084228
1862 621 3 O 0.616439 0.256627 0.121429
1891 631 2 H 0.620046 0.293387 0.0908674
1892 631 3 O 0.623913 0.312281 0.0897408
1893 631 1 CH3 0.598611 0.326914 0.0892311
2193 731 1 CH3 0.732165 0.234384 0.116651
2162 721 3 O 0.810706 0.217052 0.11151
2191 731 2 H 0.751567 0.248007 0.084648
2192 731 3 O 0.756438 0.238987 0.101023
2462 821 3 O 0.868863 0.263154 0.0812577
2491 831 2 H 0.86978 0.391138 0.0370451
2492 831 3 O 0.87518 0.373435 0.0425785
2493 831 1 CH3 0.85545 0.363235 0.0615857
2762 921 3 O 0.913721 0.303877 0.103415
2791 931 2 H 0.915354 0.380602 0.0309107
2792 931 3 O 0.932696 0.38102 0.0224096
2793 931 1 CH3 0.930438 0.396095 0.997465
121 41 2 H 0.034256 0.463734 0.0283558
122 41 3 O 0.0212744 0.457353 0.0155512
123 41 1 CH3 0.0286317 0.43019 0.00763439
421 141 2 H 0.150914 0.394749 0.117628
422 141 3 O 0.162052 0.394622 0.133413
423 141 1 CH3 0.187665 0.382292 0.126594
723 241 1 CH3 0.277721 0.465214 0.118973
721 241 2 H 0.259116 0.465723 0.154183
722 241 3 O 0.262986 0.478643 0.140353
1021 341 2 H 0.417955 0.478275 0.0427801
1022 341 3 O 0.40242 0.468643 0.0365262
1023 341 1 CH3 0.382226 0.468886 0.0576615
1321 441 2 H 0.494867 0.442862 0.956575
1322 441 3 O 0.507872 0.437918 0.969978
1323 441 1 CH3 0.501309 0.45182 0.994842
1621 541 2 H 0.624815 0.474092 0.97811
1622 541 3 O 0.61528 0.483999 0.96454
1623 541 1 CH3 0.588703 0.472229 0.961417
1921 641 2 H 0.715284 0.440492 -0.000292336
1922 641 3 O 0.70567 0.436095 0.0158768
1923 641 1 CH3 0.719964 0.414613 0.0296171
2223 741 1 CH3 0.785492 0.479575 0.06997
2221 741 2 H 0.747818 0.474819 0.0819814
2222 741 3 O 0.763042 0.463264 0.0791638
2521 841 2 H 0.882015 0.443385 0.0428936
2522 841 3 O 0.865964 0.432708 0.04164
2523 841 1 CH3 0.84702 0.442029 0.0618596
2821 941 2 H 0.980522 0.473783 0.0235455
2822 941 3 O 0.967005 0.487575 0.0240718
2823 941 1 CH3 0.967908 0.502413 0.9989
151 51 2 H 0.996552 0.51111 0.0679846
152 51 3 O 0.00430529 0.527844 0.0737358
153 51 1 CH3 0.99668 0.548641 0.0546596
451 151 2 H 0.244939 0.509531 0.157323
452 151 3 O 0.230459 0.520569 0.163781
453 151 1 CH3 0.229702 0.545102 0.147902
753 251 1 CH3 0.288454 0.570727 0.072705
751 251 2 H 0.298667 0.581302 0.109719
752 251 3 O 0.282535 0.575266 0.100971
1051 351 2 H 0.34237 0.526559 0.0949474
1052 351 3 O 0.342582 0.526248 0.0756325
1053 351 1 CH3 0.357261 0.54968 0.0661397
1351 451 2 H 0.430935 0.568149 0.101693
1352 451 3 O 0.433338 0.584685 0.0919978
1353 451 1 CH3 0.449968 0.602543 0.108095
1651 551 2 H 0.560617 0.530947 0.0868905
1652 551 3 O 0.564723 0.549436 0.0907022
1653 551 1 CH3 0.540881 0.56551 0.0854336
1951 651 2 H 0.612703 0.542274 0.0941632
1952 651 3 O 0.62875 0.55294 0.0927683
1953 651 1 CH3 0.651762 0.534957 0.0915095
2253 751 1 CH3 0.722776 0.502223 0.0213231
2251 751 2 H 0.73533 0.534796 0.00215011
2252 751 3 O 0.730321 0.530447 0.0202942
2551 851 2 H 0.927767 0.479677 0.0422199
2552 851 3 O 0.914346 0.468659 0.0506862
2553 851 1 CH3 0.92353 0.46189 0.0776012
2851 951 2 H 0.936958 0.613839 0.0526946
2852 951 3 O 0.938721 0.594694 0.0545882
2853 951 1 CH3 0.924887 0.586474 0.0789938
181 61 2 H 0.0735624 0.67291 0.0403342
182 61 3 O 0.0624325 0.67147 0.0246098
183 61 1 CH3 0.0718665 0.690757 0.00477042
211 71 2 H 0.0298795 0.735245 0.102289
213 71 1 CH3 0.998584 0.758995 0.0957508
481 161 2 H 0.248257 0.594698 0.0957797
482 161 3 O 0.232051 0.604862 0.0930876
483 161 1 CH3 0.235202 0.621139 0.0690105
511 171 2 H 0.203009 0.794002 0.0182093
783 261 1 CH3 0.301753 0.676727 0.0620633
513 171 1 CH3 0.215664 0.779166 0.0529356
813 271 1 CH3 0.265408 0.728089 0.02257
781 261 2 H 0.316194 0.678289 0.0249794
782 261 3 O 0.301509 0.669338 0.0337803
811 271 2 H 0.255904 0.765036 0.0111357
1081 361 2 H 0.366012 0.677536 0.00675948
1082 361 3 O 0.348905 0.68651 0.00666424
1083 361 1 CH3 0.349296 0.707001 0.985818
1111 371 2 H 0.382569 0.685256 0.0482345
1113 371 1 CH3 0.392275 0.723516 0.0429339
1381 461 2 H 0.414145 0.676672 0.999823
1382 461 3 O 0.405861 0.662913 0.0105602
1383 461 1 CH3 0.426911 0.646334 0.0222479
1411 471 2 H 0.497401 0.737674 0.0502714
1413 471 1 CH3 0.506024 0.774978 0.0393033
1681 561 2 H 0.623415 0.692415 0.0516397
1682 561 3 O 0.60674 0.69043 0.04209
1683 561 1 CH3 0.605962 0.663719 0.0302369
1711 571 2 H 0.563064 0.757899 0.03342
1713 571 1 CH3 0.600477 0.766169 0.0225546
1981 661 2 H 0.66119 0.679229 0.0820988
1982 661 3 O 0.664198 0.69223 0.0681303
1983 661 1 CH3 0.688755 0.685106 0.0539593
2011 671 2 H 0.664241 0.737883 0.0754175
2283 761 1 CH3 0.732422 0.711519 0.118183
2013 671 1 CH3 0.649608 0.774638 0.0800185
2313 771 1 CH3 0.757074 0.702154 0.0223609
2281 761 2 H 0.767994 0.727108 0.127003
2282 761 3 O 0.761647 0.711559 0.117456
2311 771 2 H 0.763061 0.741103 0.0281382
2581 861 2 H 0.926775 0.670339 0.0572038
2582 861 3 O 0.918488 0.654857 0.0491518
2583 861 1 CH3 0.901259 0.663859 0.0273185
2611 871 2 H 0.881661 0.759774 0.936469
2613 871 1 CH3 0.868976 0.749377 0.972761
2881 961 2 H 0.975166 0.671994 0.0364455
2882 961 3 O 0.98101 0.65712 0.0255911
2883 961 1 CH3 0.987208 0.667055 0.998805
2911 971 2 H 0.964044 0.699412 0.0706577
2913 971 1 CH3 0.949141 0.73237 0.0539885
212 71 3 O 0.0106794 0.733568 0.10361
241 81 2 H 0.0490858 0.922576 0.105452
242 81 3 O 0.0410944 0.929384 0.121669
243 81 1 CH3 0.0449187 0.909645 0.14289
512 171 3 O 0.218372 0.783951 0.0242239
541 181 2 H 0.18485 0.838475 0.0254506
542 181 3 O 0.172152 0.824607 0.0210169
543 181 1 CH3 0.149563 0.836832 0.00705575
843 281 1 CH3 0.199593 0.882583 0.0614564
812 271 3 O 0.269832 0.752347 0.00686869
841 281 2 H 0.229563 0.857106 0.0552168
842 281 3 O 0.212248 0.860361 0.0472916
1112 371 3 O 0.381813 0.70136 0.0588783
1141 381 2 H 0.388369 0.866149 0.0674146
1142 381 3 O 0.375677 0.852135 0.0634494
1143 381 1 CH3 0.374929 0.84822 0.0344891
1412 471 3 O 0.489713 0.750739 0.0382954
1441 481 2 H 0.428315 0.899595 0.0943349
1442 481 3 O 0.419654 0.894419 0.0778604
1443 481 1 CH3 0.440259 0.887232 0.0584085
1712 571 3 O 0.577836 0.767793 0.0409761
1741 581 2 H 0.63745 0.879081 0.0701528
1742 581 3 O 0.633069 0.874766 0.0518393
1743 581 1 CH3 0.605845 0.864141 0.051071
2012 671 3 O 0.671498 0.755786 0.0755415
2041 681 2 H 0.663544 0.842929 0.0466485
2042 681 3 O 0.678623 0.83277 0.0531751
2043 681 1 CH3 0.692467 0.820976 0.0302874
2343 781 1 CH3 0.719941 0.802571 0.104931
2312 771 3 O 0.7633 0.729132 0.0129776
2341 781 2 H 0.713902 0.771363 0.0809359
2342 781 3 O 0.728113 0.777378 0.092558
2612 871 3 O 0.871282 0.768131 0.950456
2641 881 2 H 0.89025 0.851822 0.116087
2642 881 3 O 0.898409 0.83584 0.123243
2643 881 1 CH3 0.883357 0.812669 0.113696
2912 971 3 O 0.951783 0.703345 0.0562557
2941 981 2 H 0.956154 0.900039 0.0787895
2942 981 3 O 0.953122 0.897871 0.0598339
2943 981 1 CH3 0.976042 0.908934 0.0454496
271 91 2 H 0.0447329 0.990444 0.00769805
272 91 3 O 0.0605865 0.994062 0.0181275
273 91 1 CH3 0.0839278 0.985276 0.00287648
571 191 2 H 0.0629877 0.95768 0.0556314
572 191 3 O 0.0664155 0.93899 0.0591155
573 191 1 CH3 0.0938185 0.936257 0.0689234
873 291 1 CH3 0.285188 0.990326 0.0477951
871 291 2 H 0.262555 0.0191458 0.032196
872 291 3 O 0.262197 -0.000167777 0.0324457
1171 391 2 H 0.322665 0.920107 0.0820429
1172 391 3 O 0.333453 0.935847 0.0850569
1173 391 1 CH3 0.360376 0.930728 0.0748829
1471 491 2 H 0.453791 0.910156 0.927558
1472 491 3 O 0.43629 0.911683 0.935594
1473 491 1 CH3 0.437915 0.930574 0.957844
1771 591 2 H 0.539579 0.941234 0.0522158
1772 591 3 O 0.537741 0.932907 0.0348809
1773 591 1 CH3 0.564407 0.929247 0.0234738
2071 691 2 H 0.632692 0.975134 0.0548295
2072 691 3 O 0.63876 0.956795 0.0545344
2073 691 1 CH3 0.638078 0.946359 0.0818329
2373 791 1 CH3 0.766266 0.939861 0.199019
2371 791 2 H 0.739276 0.958108 0.176112
2372 791 3 O 0.746778 0.960986 0.19368
2671 891 2 H 0.869485 0.900356 0.0984238
2672 891 3 O 0.867178 0.881176 0.0984043
2673 891 1 CH3 0.856223 0.873177 0.0725088
2971 991 2 H 0.0428289 0.914895 0.0328051
2972 991 3 O 0.035096 0.912833 0.0152223
2973 991 1 CH3 0.0539385 0.898026 0.998481
4 2 2 H 0.094923 0.0323412 0.212958
5 2 3 O 0.100072 0.050938 0.213881
6 2 1 CH3 0.0839424 0.0659915 0.194702
8 3 3 O 0.0279785 0.986603 0.214332
9 3 1 CH3 0.00380593 0.98842 0.197992
304 102 2 H 0.140264 0.0644685 0.136056
305 102 3 O 0.134771 0.0467233 0.130751
306 102 1 CH3 0.13798 0.0287956 0.153618
308 103 3 O 0.138337 0.0814615 0.254271
309 103 1 CH3 0.130867 0.0701889 0.280189
606 202 1 CH3 0.321584 0.0499225 0.136524
609 203 1 CH3 0.271747 0.0971537 0.263153
604 202 2 H 0.342422 0.0445549 0.170037
605 202 3 O 0.327099 0.0550727 0.164766
608 203 3 O 0.297095 0.0978327 0.277699
904 302 2 H 0.473003 0.11675 0.21039
905 302 3 O 0.465831 0.133361 0.203618
906 302 1 CH3 0.439159 0.137247 0.214935
908 303 3 O 0.307978 0.0422246 0.255417
909 303 1 CH3 0.325346 0.0404733 0.231968
1204 402 2 H 0.483934 0.0606537 0.220974
1205 402 3 O 0.485144 0.0774197 0.211454
1206 402 1 CH3 0.511772 0.0794316 0.199558
1208 403 3 O 0.462691 0.0399762 0.251599
1209 403 1 CH3 0.447586 0.0572048 0.269755
1504 502 2 H 0.560871 0.139975 0.0947929
1505 502 3 O 0.572536 0.153128 0.0867843
1506 502 1 CH3 0.563965 0.179675 0.0955257
1508 503 3 O 0.589535 0.149411 0.288758
1509 503 1 CH3 0.602695 0.128848 0.272679
1804 602 2 H 0.687252 0.061435 0.164182
1805 602 3 O 0.679665 0.0748903 0.152581
1806 602 1 CH3 0.653677 0.0828406 0.163352
1808 603 3 O 0.681854 0.0992094 0.350732
1809 603 1 CH3 0.655911 0.0983877 0.364182
2106 702 1 CH3 0.689547 0.0370077 0.0887946
2109 703 1 CH3 0.731426 0.141434 0.18851
2104 702 2 H 0.695783 0.0673292 0.113852
2105 702 3 O 0.704731 0.0600947 0.0983348
2108 703 3 O 0.713979 0.156981 0.206073
2404 802 2 H 0.868023 0.0499981 0.187693
2405 802 3 O 0.883768 0.0610035 0.185655
2406 802 1 CH3 0.907317 0.0436894 0.186171
2408 803 3 O 0.812811 0.05402 0.284765
2409 803 1 CH3 0.83043 0.073222 0.27152
2704 902 2 H 0.993979 0.0559065 0.131319
2705 902 3 O 0.977269 0.063587 0.137234
2706 902 1 CH3 0.979889 0.0709197 0.165411
2708 903 3 O 0.976758 0.0549266 0.265133
2709 903 1 CH3 0.981136 0.0686024 0.290596
34 12 2 H 0.0940606 0.156475 0.117505
35 12 3 O 0.100491 0.146232 0.132569
36 12 1 CH3 0.0858891 0.154682 0.156443
38 13 3 O 0.116723 0.17092 0.279902
39 13 1 CH3 0.0935871 0.168596 0.262184
64 22 2 H 0.108236 0.252789 0.162264
66 22 1 CH3 0.135089 0.224522 0.154135
69 23 1 CH3 0.0842806 0.28964 0.199815
334 112 2 H 0.12382 0.113441 0.140451
335 112 3 O 0.13265 0.0999057 0.151034
336 112 1 CH3 0.158673 0.110226 0.159454
338 113 3 O 0.161485 0.144536 0.255762
339 113 1 CH3 0.189425 0.1408 0.248015
364 122 2 H 0.133607 0.233122 0.0585758
636 212 1 CH3 0.266192 0.15321 0.187877
639 213 1 CH3 0.260069 0.21714 0.271193
366 122 1 CH3 0.167585 0.217377 0.0721311
369 123 1 CH3 0.199868 0.291406 0.285882
666 222 1 CH3 0.303913 0.26154 0.152162
669 223 1 CH3 0.352361 0.225886 0.262406
634 212 2 H 0.256172 0.177402 0.217886
635 212 3 O 0.250616 0.159974 0.211673
638 213 3 O 0.285567 0.207344 0.260778
664 222 2 H 0.340495 0.269591 0.165696
934 312 2 H 0.344603 0.16088 0.16539
935 312 3 O 0.342637 0.177645 0.155995
936 312 1 CH3 0.325737 0.173216 0.132556
938 313 3 O 0.342719 0.108211 0.185622
939 313 1 CH3 0.32935 0.114915 0.21074
964 322 2 H 0.377549 0.230558 0.170376
966 322 1 CH3 0.388202 0.264505 0.188273
969 323 1 CH3 0.389638 0.308453 0.252158
1234 412 2 H 0.507602 0.137294 0.0842411
1235 412 3 O 0.517985 0.121003 0.0841581
1236 412 1 CH3 0.5247 0.114424 0.0564775
1238 413 3 O 0.538029 0.111112 0.280359
1239 413 1 CH3 0.513934 0.0949348 0.283868
1264 422 2 H 0.563011 0.369904 0.227522
1266 422 1 CH3 0.523253 0.371593 0.229149
1269 423 1 CH3 0.522836 0.296827 0.244918
1534 512 2 H 0.548978 0.179808 0.251916
1535 512 3 O 0.542759 0.161602 0.250162
1536 512 1 CH3 0.533312 0.157624 0.222785
1538 513 3 O 0.54607 0.223831 0.258896
1539 513 1 CH3 0.57384 0.217949 0.265885
1564 522 2 H 0.486376 0.19051 0.0925791
1566 522 1 CH3 0.470375 0.170159 0.122844
1569 523 1 CH3 0.688162 0.288257 0.315343
1834 612 2 H 0.680486 0.163909 0.187438
1835 612 3 O 0.665262 0.173461 0.180352
1836 612 1 CH3 0.660528 0.16437 0.152975
1838 613 3 O 0.684344 0.13715 0.301085
1839 613 1 CH3 0.687018 0.135662 0.272012
1864 622 2 H 0.660573 0.258224 0.199033
2136 712 1 CH3 0.754524 0.113923 0.116244
2139 713 1 CH3 0.733575 0.187637 0.288284
1866 622 1 CH3 0.668023 0.296212 0.189673
1869 623 1 CH3 0.663568 0.218866 0.2446
2166 722 1 CH3 0.741333 0.228935 0.1998
2169 723 1 CH3 0.783605 0.287092 0.240571
2134 712 2 H 0.752673 0.144965 0.091361
2135 712 3 O 0.751015 0.142357 0.110431
2138 713 3 O 0.74055 0.17906 0.261222
2164 722 2 H 0.761984 0.207463 0.226232
2434 812 2 H 0.82911 0.0191222 0.211251
2435 812 3 O 0.82991 0.0299948 0.195302
2436 812 1 CH3 0.803245 0.0407789 0.19008
2438 813 3 O 0.829184 0.183469 0.202901
2439 813 1 CH3 0.837903 0.156498 0.195752
2464 822 2 H 0.800573 0.307274 0.186441
2466 822 1 CH3 0.799781 0.303018 0.14685
2469 823 1 CH3 0.866238 0.242348 0.168604
2734 912 2 H 0.944872 0.0947541 0.142573
2735 912 3 O 0.937178 0.111251 0.136102
2736 912 1 CH3 0.926014 0.125828 0.15885
2738 913 3 O 0.947323 0.178274 0.251298
2739 913 1 CH3 0.944182 0.152503 0.237861
2764 922 2 H 0.949203 0.273277 0.155475
2766 922 1 CH3 0.965114 0.250004 0.127343
2769 923 1 CH3 0.955807 0.236072 0.205539
65 22 3 O 0.110426 0.239236 0.148673
68 23 3 O 0.109991 0.286103 0.18636
94 32 2 H 0.011195 0.412842 0.160168
95 32 3 O 0.0298097 0.417577 0.158101
96 32 1 CH3 0.0326807 0.446258 0.162973
98 33 3 O 0.0835579 0.382383 0.152928
99 33 1 CH3 0.068743 0.36137 0.139015
365 122 3 O 0.146501 0.220281 0.0520912
368 123 3 O 0.217126 0.267839 0.287057
394 132 2 H 0.11334 0.357911 0.176691
395 132 3 O 0.120284 0.34545 0.189719
396 132 1 CH3 0.148658 0.351164 0.193817
398 133 3 O 0.243909 0.376796 0.165028
399 133 1 CH3 0.271573 0.381377 0.156763
696 232 1 CH3 0.311867 0.420703 0.215989
699 233 1 CH3 0.285324 0.292056 0.284052
665 222 3 O 0.32325 0.278276 0.166325
668 223 3 O 0.338906 0.249716 0.252127
694 232 2 H 0.336197 0.449763 0.203754
695 232 3 O 0.317852 0.448617 0.209697
698 233 3 O 0.269358 0.285771 0.260384
965 322 3 O 0.376309 0.249392 0.166256
968 323 3 O 0.365864 0.298342 0.265839
994 332 2 H 0.331539 0.319255 0.181142
995 332 3 O 0.331223 0.334071 0.193536
996 332 1 CH3 0.311419 0.328393 0.214276
998 333 3 O 0.360047 0.353606 0.306362
999 333 1 CH3 0.344292 0.374504 0.293339
1265 422 3 O 0.549957 0.380189 0.237372
1268 423 3 O 0.524439 0.275817 0.265182
1294 432 2 H 0.395654 0.327265 0.0929109
1295 432 3 O 0.376542 0.330056 0.092537
1296 432 1 CH3 0.369523 0.349024 0.113645
1298 433 3 O 0.374643 0.379478 0.193749
1299 433 1 CH3 0.376393 0.385356 0.222332
1565 522 3 O 0.487131 0.1723 0.0989854
1568 523 3 O 0.667085 0.296952 0.297047
1594 532 2 H 0.555788 0.413179 0.0855278
1595 532 3 O 0.561806 0.427447 0.0970783
1596 532 1 CH3 0.590795 0.425284 0.100162
1598 533 3 O 0.528749 0.435117 0.234076
1599 533 1 CH3 0.529997 0.451165 0.258479
1865 622 3 O 0.649962 0.273984 0.195529
1868 623 3 O 0.671815 0.219648 0.216565
1894 632 2 H 0.641775 0.348308 0.0938698
1895 632 3 O 0.650454 0.365492 0.0922552
1896 632 1 CH3 0.650566 0.373215 0.0640606
1898 633 3 O 0.701687 0.311907 0.247291
1899 633 1 CH3 0.71808 0.332105 0.260629
2196 732 1 CH3 0.729916 0.332547 0.176645
2199 733 1 CH3 0.739941 0.406896 0.240278
2165 722 3 O 0.76531 0.22318 0.215502
2168 723 3 O 0.793226 0.273939 0.216301
2194 732 2 H 0.749914 0.366961 0.17804
2195 732 3 O 0.731468 0.361552 0.179952
2198 733 3 O 0.715583 0.421661 0.246855
2465 822 3 O 0.802898 0.318904 0.171192
2468 823 3 O 0.855648 0.215921 0.161964
2494 832 2 H 0.798222 0.361793 0.161169
2495 832 3 O 0.791057 0.379691 0.162408
2496 832 1 CH3 0.778695 0.386526 0.136814
2498 833 3 O 0.893941 0.418071 0.1168
2499 833 1 CH3 0.869911 0.41069 0.131722
2765 922 3 O 0.953826 0.275249 0.136822
2768 923 3 O 0.939816 0.256829 0.192576
2794 932 2 H 0.990845 0.371025 0.0700377
2795 932 3 O 0.00332657 0.372336 0.0847241
2796 932 1 CH3 0.999463 0.398141 0.0979062
2798 933 3 O 0.931001 0.378013 0.193185
2799 933 1 CH3 0.912251 0.362078 0.177401
124 42 2 H 0.0211433 0.532156 0.219261
125 42 3 O 0.00681915 0.52036 0.224635
126 42 1 CH3 0.0177206 0.500197 0.242779
128 43 3 O 0.0652698 0.539443 0.220512
129 43 1 CH3 0.0862696 0.551831 0.204383
424 142 2 H 0.168386 0.406173 0.172259
425 142 3 O 0.176236 0.415701 0.187119
426 142 1 CH3 0.15476 0.428255 0.202474
428 143 3 O 0.158397 0.497125 0.296894
429 143 1 CH3 0.153833 0.475732 0.277501
726 242 1 CH3 0.295172 0.524605 0.190896
729 243 1 CH3 0.243999 0.4507 0.212674
724 242 2 H 0.28885 0.502231 0.158561
725 242 3 O 0.303573 0.512553 0.165623
728 243 3 O 0.261541 0.461069 0.191713
1024 342 2 H 0.451546 0.522543 0.130311
1025 342 3 O 0.442479 0.532189 0.116241
1026 342 1 CH3 0.439474 0.514395 0.093243
1028 343 3 O 0.386422 0.448746 0.2163
1029 343 1 CH3 0.414985 0.445006 0.211328
1324 442 2 H 0.48051 0.50011 0.176337
1325 442 3 O 0.479749 0.503216 0.157285
1326 442 1 CH3 0.507032 0.503203 0.146788
1328 443 3 O 0.385206 0.415428 0.144578
1329 443 1 CH3 0.359921 0.42244 0.13169
1624 542 2 H 0.570649 0.472536 0.157516
1625 542 3 O 0.575692 0.489349 0.149449
1626 542 1 CH3 0.604595 0.492693 0.152275
1628 543 3 O 0.545927 0.448598 0.182205
1629 543 1 CH3 0.535378 0.427872 0.164493
1924 642 2 H 0.669491 0.44829 0.0181111
1925 642 3 O 0.65242 0.45669 0.0147611
1926 642 1 CH3 0.637951 0.458716 0.0400818
1928 643 3 O 0.707127 0.482436 0.251839
1929 643 1 CH3 0.679579 0.479464 0.242518
2226 742 1 CH3 0.662612 0.385029 0.176899
2229 743 1 CH3 0.848693 0.515451 0.230735
2224 742 2 H 0.698366 0.387649 0.194248
2225 742 3 O 0.680234 0.392236 0.199083
2228 743 3 O 0.820519 0.52094 0.225198
2524 842 2 H 0.775424 0.414989 0.183428
2525 842 3 O 0.768105 0.432812 0.184833
2526 842 1 CH3 0.79023 0.451912 0.18534
2528 843 3 O 0.96318 0.418603 0.16661
2529 843 1 CH3 0.95325 0.442783 0.1797
2824 942 2 H 0.967089 0.509482 0.216407
2825 942 3 O 0.948974 0.50974 0.2097
2826 942 1 CH3 0.930854 0.503137 0.231669
2828 943 3 O 0.968639 0.412919 0.249759
2829 943 1 CH3 0.941216 0.422841 0.247726
154 52 2 H 0.0240087 0.555663 0.107287
155 52 3 O 0.0349615 0.564297 0.120654
156 52 1 CH3 0.0439034 0.544085 0.139788
158 53 3 O 0.0738233 0.544854 0.278593
159 53 1 CH3 0.0984128 0.560491 0.276264
454 152 2 H 0.200157 0.508576 0.188507
455 152 3 O 0.187573 0.508258 0.203162
456 152 1 CH3 0.160535 0.506822 0.192141
458 153 3 O 0.202471 0.571374 0.223444
459 153 1 CH3 0.214816 0.591821 0.206588
756 252 1 CH3 0.33166 0.619181 0.156351
759 253 1 CH3 0.230266 0.519755 0.258476
754 252 2 H 0.292906 0.617355 0.147356
755 252 3 O 0.309043 0.622672 0.138162
758 253 3 O 0.204541 0.529473 0.268395
1054 352 2 H 0.334507 0.523882 0.147563
1055 352 3 O 0.351322 0.527849 0.13892
1056 352 1 CH3 0.371885 0.510384 0.150177
1058 353 3 O 0.332175 0.522784 0.280075
1059 353 1 CH3 0.323143 0.546017 0.264803
1354 452 2 H 0.479713 0.631141 0.224513
1355 452 3 O 0.484945 0.612545 0.224452
1356 452 1 CH3 0.461702 0.596393 0.217142
1358 453 3 O 0.533614 0.593427 0.252573
1359 453 1 CH3 0.526235 0.593506 0.28086
1654 552 2 H 0.562505 0.526054 0.189221
1655 552 3 O 0.561053 0.538476 0.203945
1656 552 1 CH3 0.559452 0.565574 0.193096
1658 553 3 O 0.595061 0.534314 0.251152
1659 553 1 CH3 0.591625 0.555456 0.271047
1954 652 2 H 0.622594 0.595082 0.0920827
1955 652 3 O 0.616281 0.612391 0.0978911
1956 652 1 CH3 0.592066 0.608567 0.113816
1958 653 3 O 0.761315 0.581737 0.259269
1959 653 1 CH3 0.741735 0.562343 0.249518
2256 752 1 CH3 0.824023 0.607462 0.228259
2259 753 1 CH3 0.800551 0.565233 0.326756
2254 752 2 H 0.824649 0.57659 0.203105
2255 752 3 O 0.814294 0.581638 0.218613
2258 753 3 O 0.805431 0.569753 0.298289
2554 852 2 H 0.877397 0.576516 0.175133
2555 852 3 O 0.858593 0.572371 0.173568
2556 852 1 CH3 0.855758 0.547996 0.157682
2558 853 3 O 0.860639 0.594319 0.292551
2559 853 1 CH3 0.879063 0.579749 0.275148
2854 952 2 H 0.927126 0.551372 0.198042
2855 952 3 O 0.922771 0.568623 0.190516
2856 952 1 CH3 0.944245 0.576489 0.172307
2858 953 3 O 0.963035 0.583076 0.304445
2859 953 1 CH3 0.967798 0.574695 0.276846
184 62 2 H 0.0542181 0.661579 0.0885554
185 62 3 O 0.0697492 0.664746 0.0995992
186 62 1 CH3 0.0753622 0.640471 0.114891
188 63 3 O 0.00566129 0.625537 0.307676
189 63 1 CH3 0.994022 0.649115 0.320449
214 72 2 H 0.0331924 0.733163 0.192477
216 72 1 CH3 0.0728065 0.733078 0.188366
219 73 1 CH3 0.0609818 0.747487 0.317332
484 162 2 H 0.229749 0.614272 0.129823
485 162 3 O 0.224819 0.62002 0.147595
486 162 1 CH3 0.224834 0.649246 0.148229
488 163 3 O 0.13988 0.708655 0.142793
489 163 1 CH3 0.146492 0.700467 0.170067
514 172 2 H 0.0746596 0.706963 0.100632
786 262 1 CH3 0.201803 0.705975 0.0990853
789 263 1 CH3 0.259694 0.588571 0.28332
516 172 1 CH3 0.0870753 0.742828 0.112703
519 173 1 CH3 0.168561 0.769301 0.224144
816 272 1 CH3 0.272308 0.730907 0.152512
819 273 1 CH3 0.21227 0.835508 0.314423
784 262 2 H 0.224524 0.71245 0.131149
785 262 3 O 0.206583 0.717095 0.125695
788 263 3 O 0.26619 0.582619 0.255445
814 272 2 H 0.284357 0.699147 0.131719
1084 362 2 H 0.316481 0.664637 0.1232
1085 362 3 O 0.317514 0.683418 0.127608
1086 362 1 CH3 0.341748 0.694458 0.115549
1088 363 3 O 0.3265 0.614295 0.342479
1089 363 1 CH3 0.348711 0.615154 0.361465
1114 372 2 H 0.412128 0.817547 0.133496
1116 372 1 CH3 0.373405 0.822139 0.125392
1119 373 1 CH3 0.386844 0.774961 0.227838
1384 462 2 H 0.460796 0.736986 0.178162
1385 462 3 O 0.465097 0.71836 0.180949
1386 462 1 CH3 0.467555 0.705403 0.15486
1388 463 3 O 0.469984 0.668211 0.244445
1389 463 1 CH3 0.442587 0.670064 0.254473
1414 472 2 H 0.443748 0.781153 0.138398
1416 472 1 CH3 0.432163 0.761021 0.106045
1419 473 1 CH3 0.45004 0.795253 0.191579
1684 562 2 H 0.541648 0.688797 0.223389
1685 562 3 O 0.55783 0.678314 0.222185
1686 562 1 CH3 0.550472 0.650089 0.220228
1688 563 3 O 0.506919 0.720502 0.222705
1689 563 1 CH3 0.502213 0.742141 0.241789
1714 572 2 H 0.549887 0.707061 0.0664543
1716 572 1 CH3 0.555199 0.696726 0.104548
1719 573 1 CH3 0.602292 0.729571 0.222297
1984 662 2 H 0.630383 0.650633 0.110319
1985 662 3 O 0.644324 0.663414 0.114252
1986 662 1 CH3 0.659754 0.653586 0.137055
1988 663 3 O 0.670137 0.607703 0.300242
1989 663 1 CH3 0.673608 0.607979 0.271217
2014 672 2 H 0.642228 0.724074 0.183663
2286 762 1 CH3 0.810426 0.657368 0.151662
2289 763 1 CH3 0.729407 0.666128 0.317642
2016 672 1 CH3 0.647636 0.739466 0.147331
2019 673 1 CH3 0.612123 0.881492 0.219369
2316 772 1 CH3 0.729875 0.765894 0.187275
2319 773 1 CH3 0.7389 0.839183 0.287324
2284 762 2 H 0.782333 0.677682 0.132058
2285 762 3 O 0.784069 0.65984 0.13926
2288 763 3 O 0.750259 0.646233 0.322539
2314 772 2 H 0.691935 0.768716 0.175493
2584 862 2 H 0.982659 0.704746 0.114779
2585 862 3 O 0.966623 0.695064 0.119502
2586 862 1 CH3 0.973919 0.673306 0.137612
2588 863 3 O 0.85548 0.656089 0.296357
2589 863 1 CH3 0.831379 0.664725 0.282246
2614 872 2 H 0.753506 0.767266 0.119859
2616 872 1 CH3 0.789886 0.783472 0.11992
2619 873 1 CH3 0.877467 0.770536 0.320909
2884 962 2 H 0.0139245 0.647596 0.0517904
2885 962 3 O 0.020966 0.645471 0.069654
2886 962 1 CH3 0.0085124 0.621978 0.0818004
2888 963 3 O 0.914943 0.673487 0.292428
2889 963 1 CH3 0.925295 0.654864 0.272413
2914 972 2 H 0.0091716 0.768967 0.209449
2916 972 1 CH3 0.984661 0.740816 0.22334
2919 973 1 CH3 0.041501 0.673342 0.264512
215 72 3 O 0.0479302 0.723443 0.200321
218 73 3 O 0.0656076 0.750097 0.288585
244 82 2 H 0.082961 0.841009 0.103276
245 82 3 O 0.100456 0.833695 0.106967
246 82 1 CH3 0.118003 0.839773 0.0843882
248 83 3 O 0.0686177 0.804383 0.262017
249 83 1 CH3 0.0940943 0.81772 0.256757
515 172 3 O 0.0678278 0.725013 0.0997893
518 173 3 O 0.156639 0.795658 0.228358
544 182 2 H 0.120043 0.817633 0.139848
545 182 3 O 0.134128 0.814585 0.152714
546 182 1 CH3 0.146782 0.788925 0.14671
548 183 3 O 0.203524 0.849675 0.228052
549 183 1 CH3 0.225205 0.868064 0.221239
846 282 1 CH3 0.288525 0.902557 0.120488
849 283 1 CH3 0.276849 0.911007 0.31727
815 272 3 O 0.267476 0.705785 0.138366
818 273 3 O 0.204042 0.830072 0.286904
844 282 2 H 0.320298 0.879035 0.115651
845 282 3 O 0.305858 0.885316 0.104459
848 283 3 O 0.259837 0.908777 0.293601
1115 372 3 O 0.397148 0.826377 0.141913
1118 373 3 O 0.383554 0.779138 0.199092
1144 382 2 H 0.360048 0.847018 0.172165
1145 382 3 O 0.342745 0.8504 0.180064
1146 382 1 CH3 0.346661 0.858383 0.207912
1148 383 3 O 0.326468 0.794845 0.191209
1149 383 1 CH3 0.299813 0.791896 0.202846
1415 472 3 O 0.436833 0.785732 0.12095
1418 473 3 O 0.439622 0.770313 0.180441
1444 482 2 H 0.413662 0.862182 0.13383
1445 482 3 O 0.423693 0.878599 0.132078
1446 482 1 CH3 0.424243 0.891952 0.158077
1448 483 3 O 0.461245 0.919581 0.232834
1449 483 1 CH3 0.485068 0.902814 0.235265
1715 572 3 O 0.539446 0.708047 0.0826788