LAMMPS data file via write_data, version 29 Oct 2020, timestep = 7515

3000 atoms
3 atom types
2000 bonds
2 bond types
1000 angles
1 angle types

-21.88798197864407 21.009315978594792 xlo xhi
-21.262648978619357 21.634648978619357 ylo yhi
-21.44964797859479 21.447649978644073 zlo zhi

Masses

1 15.035
2 1.008
3 15.999

Pair Coeffs # lj/cut/coul/cut

1 0.2072 3.748
2 0.021 1.58
3 0.1554 3.192

Bond Coeffs # zero

1 1.43
2 0.945

Angle Coeffs # zero

1 108.5

Atoms # full

32 11 3 -0.82 -15.56295857814467 -17.933339982805858 -21.055095190666258 0 0 0
2734 912 2 0.52 -20.636488122728373 -17.237186297221296 -17.292810588244773 1 0 0
2735 912 3 -0.82 -20.559436436180334 -16.753380052586433 -18.10091591177051 1 0 0
33 11 1 0.3 -15.938751265774407 -18.78504773911173 -19.969599209645633 0 0 0
2706 902 1 0.3 -20.978627117720382 -19.252932715568463 -15.164761117857712 1 0 0
2736 912 1 0.3 -19.842799862438554 -17.555367203370842 -19.04334703249911 1 0 0
31 11 2 0.52 -14.973656086617854 -17.271524323008297 -20.726827152220874 0 0 0
2731 911 2 0.52 -21.544546126274994 -15.331202244961403 -19.046519372803157 1 0 0
3 1 1 0.3 -15.341102556912066 -20.978516041683488 -16.139525887522293 0 0 0
1 1 2 0.52 -14.809207088354052 -19.124981494152717 -15.861935704372062 0 0 0
2 1 3 -0.82 -15.46277144797502 -19.70456871310747 -15.50141721662496 0 0 0
305 102 3 -0.82 -13.607922454316443 -17.889377147895768 -17.095047559211 0 0 0
306 102 1 0.3 -12.236917872197441 -18.24903082091414 -16.90551273103788 0 0 0
601 201 2 0.52 -11.616368608097945 -20.657004362283217 -18.99772260145441 0 0 0
632 211 3 -0.82 -10.178312589840662 -17.07980011019761 -21.059841285621385 0 0 0
304 102 2 0.52 -13.640797317430948 -17.039230535397824 -17.506398525786306 0 0 0
628 210 2 0.52 -10.42341964037979 -18.964466254571146 -20.408686000112926 0 0 1
629 210 3 -0.82 -10.760072797507924 -19.838190451214754 -20.280972870540204 0 0 1
633 211 1 0.3 -9.348425383059915 -16.83856583882853 -19.920534013507588 0 0 0
933 311 1 0.3 -4.191707046434566 -17.540429739871385 21.41757716350429 0 0 -1
931 311 2 0.52 -4.14925336033674 -19.39507179286808 -20.884692762795858 0 0 0
932 311 3 -0.82 -4.558288326001602 -18.918199313831185 21.30668551583473 0 0 -1
906 302 1 0.3 -4.948937315686738 -17.06460973004488 -17.067095849829517 0 0 0
302 101 3 -0.82 -7.358543431077683 -19.683767715444787 -16.874992778632063 0 0 0
301 101 2 0.52 -7.763846246855454 -20.393510852416522 -17.34937172720023 0 0 0
303 101 1 0.3 -7.786169519741675 -19.746505595406738 -15.511861203347777 0 0 0
961 321 2 0.52 -3.030577590830088 -20.203222392552536 -18.086338990330393 0 0 0
1235 412 3 -0.82 1.7518598864810677 -16.08791200557286 -19.186836689322334 0 0 0
1236 412 1 0.3 1.8269714158467316 -17.502090000331293 -19.3852973345607 0 0 0
1234 412 2 0.52 0.845403927937582 -15.849865446771055 -19.065553821814767 0 0 0
963 321 1 0.3 -1.5365922392477565 -19.134253896075858 -18.73508430028917 0 0 0
962 321 3 -0.82 -2.7496556754127077 -19.867577679415206 -18.92387287038261 0 0 0
1501 501 2 0.52 5.9358542708982505 -16.803246952838048 -17.399105863361445 0 0 0
1502 501 3 -0.82 6.410312550243535 -17.618937994178204 -17.44989682510481 0 0 0
1503 501 1 0.3 7.406483822076588 -17.62906406706681 -16.423998166876082 0 0 0
1801 601 2 0.52 5.672722664557593 -19.17477059105633 -18.272334844375376 0 0 0
1802 601 3 -0.82 5.490151679864962 -19.973175612748403 -18.743778823933773 0 0 0
1803 601 1 0.3 6.5850046969888325 -20.24093125027791 -19.62385361554387 0 0 0
1533 511 1 0.3 7.390129610508623 -15.701500315252051 -19.961746070005738 0 0 0
1532 511 3 -0.82 7.156206809638892 -16.198066610334784 -21.28221182657813 0 0 0
1832 611 3 -0.82 4.618434204224844 -15.485843634545308 -17.38266946292758 0 0 0
1829 610 3 -0.82 3.091389615973334 -20.482778258908947 -20.307379416841506 0 0 1
1531 511 2 0.52 6.244603978417224 -16.435918661618818 -21.356004981445945 0 0 0
1828 610 2 0.52 3.750682549102308 -20.461987926431913 -19.630667138832745 0 0 1
2103 701 1 0.3 10.817048368409857 -19.144498270074465 -19.402135828261844 0 0 0
2101 701 2 0.52 11.970357694464177 -18.385590929785444 -18.02754617292352 0 0 0
2102 701 3 -0.82 11.989946392488278 -18.449773181033642 -18.970169313398948 0 0 0
2431 811 2 0.52 15.504488413638796 -15.444656637306654 -18.95376606065742 0 0 0
2136 712 1 0.3 12.560696474890776 -14.534816528118695 -17.860798263676156 0 0 0
2128 710 2 0.52 13.37685880647473 -17.199724035531368 -19.749579707865923 0 0 1
2129 710 3 -0.82 14.18877307185415 -16.8312195606087 -20.06269445225719 0 0 1
2105 702 3 -0.82 11.402710373277031 -18.70479686612439 -16.009626099293477 0 0 0
2130 710 1 0.3 14.934701999333448 -17.86356898227556 -20.71290403601561 0 0 1
2403 801 1 0.3 15.710210412744573 -18.69445613978158 -17.159145872885272 0 0 0
2401 801 2 0.52 16.739002861473452 -20.115710333483428 -18.006010085482096 0 0 0
2402 801 3 -0.82 15.881070178465421 -20.038218949525337 -17.617442965899087 0 0 0
2702 901 3 -0.82 18.562127951431208 -20.505792116797206 -18.306436086043146 0 0 0
2703 901 1 0.3 19.15298450581959 -19.20428901238794 -18.262778254064727 0 0 0
2701 901 2 0.52 18.63773337696488 -20.89830118460516 -17.4501307706457 0 0 0
2367 789 1 0.3 15.273761729395027 21.55213660038071 -21.036636743001406 0 0 1
2739 913 1 0.3 19.61350999805225 -13.3937515279308 -15.286212181482005 0 0 0
62 21 3 -0.82 -17.092429761776394 -14.145517938675484 -15.289298979643714 0 0 0
364 122 2 0.52 -16.914920278675112 -12.176143271583788 -19.808627830199352 0 0 0
365 122 3 -0.82 -16.77689907504137 -12.990185367763925 -20.268326713527568 0 0 0
366 122 1 0.3 -17.207169465344286 -14.064359821520572 -19.428121732456432 0 0 0
419 140 3 -0.82 -16.46644020194215 -10.15673283921954 -19.43760023149344 0 0 1
2732 911 3 -0.82 20.7455021160879 -14.75777270789488 -19.48863278891165 0 0 0
388 130 2 0.52 -16.40062859585366 -10.404344643998185 -21.354088754553796 0 0 1
2768 923 3 -0.82 -21.02815014250178 -10.880561343323349 -15.65357335207257 1 0 0
389 130 3 -0.82 -16.190882035015584 -10.08553542440361 20.678682845812837 0 0 0
334 112 2 0.52 -14.05021068290236 -14.270519643958892 -17.771716643375314 0 0 0
335 112 3 -0.82 -13.85571896292758 -15.0793253090034 -18.2200996677147 0 0 0
336 112 1 0.3 -13.488750934396542 -14.773958688925092 -19.56806610546441 0 0 0
34 12 2 0.52 -15.283527477911804 -13.42024203479126 -16.081620469839052 0 0 0
35 12 3 -0.82 -14.560899159050512 -12.939439487782968 -16.45535438033622 0 0 0
693 231 1 0.3 -12.7431783783536 -9.23721096928096 -17.562763040186088 0 0 0
691 231 2 0.52 -12.794180099685155 -10.570664333352113 -18.9822207799897 0 0 0
692 231 3 -0.82 -13.421466784322185 -10.001581162152828 -18.56305843011402 0 0 0
662 221 3 -0.82 -10.976486538917728 -11.338319968892437 -19.696121116524743 0 0 0
661 221 2 0.52 -10.406668970423897 -10.99090392935359 -20.365187691814747 0 0 0
418 140 2 0.52 -15.559750334045122 -10.192147958964547 -19.173590171662404 0 0 1
663 221 1 0.3 -10.373490354379474 -12.515795383309777 -19.153097146743967 0 0 0
1240 414 2 0.52 -5.51153770151387 -11.035566258019633 -17.223037562104135 0 0 0
1241 414 3 -0.82 -6.370772763548906 -10.647702277462963 -17.288720748648615 0 0 0
1242 414 1 0.3 -6.305354852705829 -9.552586078048204 -18.205982320087656 0 0 0
964 322 2 0.52 -4.385522508366062 -12.208472743522684 -15.148087941819032 0 0 0
965 322 3 -0.82 -4.252392584152144 -11.454748749619881 -15.70235892136696 0 0 0
664 222 2 0.52 -6.86098066959385 -10.715344799139984 -15.395550934956317 0 0 0
1566 522 1 0.3 -1.1580020376321656 -15.808249641463327 -17.264711031246073 0 0 0
1565 522 3 -0.82 -1.1164655182177157 -15.482110836860876 -18.656413577174654 0 0 0
1561 521 2 0.52 -0.6109729587758856 -12.059088191322976 -19.925585204963703 0 0 0
1564 522 2 0.52 -1.3553096790446837 -14.573527813444418 -18.758728516599714 0 0 0
1262 421 3 -0.82 0.0618815127486414 -10.754393958322428 -21.193618549828198 0 0 0
1562 521 3 -0.82 -1.2294353417349484 -12.649046208820824 -19.522477699010444 0 0 0
1563 521 1 0.3 -2.4790118435622652 -12.534539132780134 -20.20831626640632 0 0 0
1261 421 2 0.52 -0.2139666752948557 -10.356732177655456 20.89200771165892 0 0 -1
1263 421 1 0.3 1.3822432531992135 -10.296867942577288 -20.889903855461128 0 0 0
966 322 1 0.3 -3.0894202968106086 -11.680279217279395 -16.50333285496799 0 0 0
1506 502 1 0.3 5.136105731554906 -12.31892413804269 -20.519398775301593 0 0 0
1833 611 1 0.3 3.893956810575954 -15.559491687563739 -16.15196387735402 0 0 0
1504 502 2 0.52 4.7508999151850055 -14.227944716226808 -20.46635917935073 0 0 0
1505 502 3 -0.82 4.9224282853863635 -13.55241087843931 -19.828182328356803 0 0 0
1831 611 2 0.52 4.125355263937518 -14.955222640699205 -17.98959022320862 0 0 0
1836 612 1 0.3 7.653730277296816 -13.236901176692164 -16.608553061944136 0 0 0
2190 730 1 0.3 8.61547649942689 -9.537878347588215 -19.70581304239211 0 0 1
1863 621 1 0.3 7.775199702366251 -9.510623089180907 -15.278030656647617 0 0 0
2134 712 2 0.52 12.545821029218025 -13.640812298967502 -19.591720765721476 0 0 0
2135 712 3 -0.82 12.990629424076083 -13.5158773077087 -18.76735677329606 0 0 0
2193 731 1 0.3 12.894608294905026 -9.473043098376383 -17.606401766760534 0 0 0
2191 731 2 0.52 13.338548602432063 -11.324343906762254 -18.020115623839878 0 0 0
2192 731 3 -0.82 13.70846357396249 -10.642146968345003 -17.480849000071874 0 0 0
2520 840 1 0.3 12.852197767257572 -9.617411340111776 -21.22282704112061 0 0 1
1861 621 2 0.52 9.15811547589717 -8.546277263788767 -16.2543190570923 0 0 0
1862 621 3 -0.82 8.98025454598179 -8.743845041864452 -15.3474718167102 0 0 0
2518 840 2 0.52 14.41466436496227 -8.823442646638432 -20.372021737998846 0 0 1
2432 811 3 -0.82 16.279566162927914 -15.078202065398102 -18.55626603819386 0 0 0
2733 911 1 0.3 19.536533318495188 -15.480553616348779 -19.735432249860988 0 0 0
2161 721 2 0.52 16.548117840565602 -14.805213349407245 -16.599198926671132 0 0 0
2433 811 1 0.3 16.40381789146656 -13.716562297279722 -18.97510545051477 0 0 0
2766 922 1 0.3 20.752540966751233 -11.438868191527654 -18.914227122606825 0 0 0
2764 922 2 0.52 20.495066312019212 -11.019705003269465 -17.02913631741326 0 0 0
2463 821 1 0.3 16.58976051606264 -10.137223117092487 -20.192090748158577 0 0 0
2765 922 3 -0.82 20.075338886468934 -10.779599533630478 -17.84105892782151 0 0 0
2462 821 3 -0.82 16.098810205662176 -9.123372499799524 -19.311180715259077 0 0 0
2469 823 1 0.3 16.355426172004975 -11.409840565740145 -15.2907573336918 0 0 0
2461 821 2 0.52 16.83268056734942 -8.743115307310804 -18.853057560127322 0 0 0
2761 921 2 0.52 18.79202418871521 -9.26904646165453 -17.52912420517852 0 0 0
93 31 1 0.3 -17.845326230859534 -5.214887732843046 -15.709332430604654 0 0 0
2795 932 3 -0.82 -21.087279458616045 -2.68171120003516 -18.178726494515086 1 0 0
2794 932 2 0.52 -21.31698995733587 -3.4174268308650895 -18.725531039030486 1 0 0
2820 940 1 0.3 -20.11106380803928 -5.738272723778623 -19.989038004733747 1 0 1
420 140 1 0.3 -17.15118521896321 -9.233994056672223 -18.58636277265311 0 0 1
2796 932 1 0.3 -21.37820514949042 -3.01815462113413 -16.81964743756123 1 0 0
2819 940 3 -0.82 -21.320054917762324 -4.9870360696913 -19.85151798524314 1 0 1
2818 940 2 0.52 20.99870269892312 -5.217181026776977 -20.562407163474706 0 0 1
394 132 2 0.52 -14.696520562202874 -9.041038838305125 19.924240309724595 0 0 -1
395 132 3 -0.82 -14.272846349253697 -8.202498058904844 19.82232179557471 0 0 -1
396 132 1 0.3 -14.04719716822812 -7.647339199773954 21.120708814747495 0 0 -1
421 141 2 0.52 -11.306305599369937 -6.552638936228746 -16.421051910103323 0 0 0
422 141 3 -0.82 -10.749117871076457 -6.396901550363626 -17.16826430652093 0 0 0
721 241 2 0.52 -10.785380479697027 -4.633660867552631 -18.26148289078456 0 0 0
723 241 1 0.3 -10.855591909490869 -3.523958049192231 -19.861228978457095 0 0 0
722 241 3 -0.82 -10.93003202688585 -3.7182892752216503 -18.44644213605988 0 0 0
453 151 1 0.3 -13.732868983856442 -2.7978369611809164 -17.1471624873273 0 0 0
423 141 1 0.3 -9.504172323492156 -7.0668882717657375 -16.953424347315536 0 0 0
450 150 1 0.3 -8.45366135771125 -6.46977768612911 21.184438911423946 0 0 0
1296 432 1 0.3 -4.741187589771112 -6.396529663452105 -19.82913154903052 0 0 0
1294 432 2 0.52 -4.992497149155639 -5.32694559890872 -18.220284262765123 0 0 0
1295 432 3 -0.82 -4.57422813029746 -6.147766717716699 -18.430857862125066 0 0 0
1328 443 3 -0.82 -6.482270533713111 -4.437430383122027 -17.486356128949758 0 0 0
1327 443 2 0.52 -6.335647702124874 -4.753493917016456 -16.60792351378477 0 0 0
1329 443 1 0.3 -7.778820035839278 -3.836767889866202 -17.54195981401027 0 0 0
1298 433 3 -0.82 -5.765416442706464 -5.496397736892071 -14.886737647603901 0 0 0
1291 431 2 0.52 -0.6568539146191981 -7.2349939791094044 -19.72421068362331 0 0 0
1292 431 3 -0.82 -0.40083315204676495 -7.190795377340683 -18.815619421450545 0 0 0
1293 431 1 0.3 -1.583233876948995 -7.165377334561491 -18.011747383776246 0 0 0
1591 531 2 0.52 1.2677787570118433 -7.468471857226783 -17.381152089091156 0 0 0
1592 531 3 -0.82 1.9240791379109758 -7.228050328639663 -16.745144749440826 0 0 0
1594 532 2 0.52 0.9014526395223612 -4.898224921613526 -18.27639073353593 0 0 0
1595 532 3 -0.82 1.0387706545042583 -4.005752649077049 -18.555091691100884 0 0 0
1618 540 2 0.52 -0.6513427617368741 -4.91787047868041 -21.24087975776703 0 0 1
1619 540 3 -0.82 -1.193276627102538 -5.672009179523892 -21.06589441839418 0 0 1
2189 730 3 -0.82 8.531507139848166 -8.784414079971523 -18.49330798533326 0 0 1
1891 631 2 0.52 7.041780682906214 -6.39604747838008 -17.394594547636096 0 0 0
1892 631 3 -0.82 6.457778981758487 -7.133817215588294 -17.482204503096703 0 0 0
1893 631 1 0.3 5.249256974483032 -6.8423039761636275 -16.775506294847418 0 0 0
1895 632 3 -0.82 6.97751527676558 -3.613988376090674 -17.07545184468229 0 0 0
1896 632 1 0.3 6.832783157415644 -2.741912827865118 -18.199491265509895 0 0 0
1923 641 1 0.3 7.760323554123353 -4.697102720531408 -20.658865088042468 0 0 0
2188 730 2 0.52 7.739348322457115 -8.269559852416691 -18.514459174391796 0 0 1
1894 632 2 0.52 7.862666204419689 -3.9447866312785145 -17.0645940649394 0 0 0
2196 732 1 0.3 9.871426667028192 -5.830558251289988 -18.30968311958499 0 0 0
2195 732 3 -0.82 9.314378347416131 -5.305200815979141 -17.101947836765493 0 0 0
2194 732 2 0.52 10.021321744963341 -5.107763961336648 -16.506724762665403 0 0 0
2495 832 3 -0.82 11.437251465462268 -4.208979778702947 -15.323820629475453 0 0 0
2519 840 3 -0.82 13.642792464477886 -8.49943091925258 -20.810507277082174 0 0 1
2548 850 2 0.52 13.991702305509605 -4.742442702340053 21.17520804210023 0 0 0
2496 832 1 0.3 10.872684061811938 -2.8994625848537687 -15.217255415733042 0 0 0
2493 831 1 0.3 15.775823720095069 -5.71297456271191 -19.42687893854642 0 0 0
2492 831 3 -0.82 15.354520423525784 -4.727705523082161 -20.373808853108564 0 0 0
2491 831 2 0.52 15.156329944226329 -3.929659590225942 -19.908100646369505 0 0 0
2763 921 1 0.3 19.23924932275795 -7.717139178966589 -18.618679456516613 0 0 0
2762 921 3 -0.82 18.52029291903053 -8.36468973762266 -17.5657275394946 0 0 0
99 33 1 0.3 -18.39807425941765 -0.6251746411335581 -17.236011985621325 0 0 0
98 33 3 -0.82 -19.37643049894232 0.07968755137143546 -18.004722699947624 0 0 0
97 33 2 0.52 -19.984641742301964 -0.5480233107325638 -18.364022661794728 0 0 0
183 61 1 0.3 -18.10819311006586 3.2131495722467136 -18.97549038507561 0 0 0
182 61 3 -0.82 -18.794534428809577 2.906020683742881 -17.75912891593183 0 0 0
181 61 2 0.52 -19.208622239764587 2.06181686193937 -17.853418049696206 0 0 0
154 52 2 0.52 -17.310824407338174 3.366731951574561 -16.00470282627592 0 0 0
149 50 3 -0.82 -18.762353049579417 1.1573297653493846 21.328272008484248 0 0 0
121 41 2 0.52 -20.456303460428963 1.2866910144135808 -20.196607839235153 0 0 0
780 260 1 0.3 -10.692632543047035 0.21049611802140689 -20.653241510284456 0 0 1
451 151 2 0.52 -11.802920137082745 -2.839625949637046 -16.884274820695282 0 0 0
485 162 3 -0.82 -14.155302560608064 2.3045858962629566 -18.93368605924897 0 0 0
486 162 1 0.3 -14.516101080776139 1.0292392750100525 -18.396803216026434 0 0 0
452 151 3 -0.82 -12.538984944637797 -2.4413366888089136 -16.44539593706181 0 0 0
756 252 1 0.3 -11.187857740205356 1.1052441515502593 -15.869526706503631 0 0 0
484 162 2 0.52 -13.268767270821199 2.5003857130470806 -18.671472642122072 0 0 0
1023 341 1 0.3 -4.622114233634825 -2.583640197772773 -20.644550526611432 0 0 0
1051 351 2 0.52 -8.858618965833017 2.479152644504005 -18.787431793384524 0 0 0
1054 352 2 0.52 -7.778664092309457 0.7713841908099646 -17.050785313923722 0 0 0
1055 352 3 -0.82 -7.608574912914021 1.1146453757735664 -17.914661310470134 0 0 0
1056 352 1 0.3 -7.10716395073648 0.05485025314297687 -18.733409837089823 0 0 0
1353 451 1 0.3 -5.451540574572547 2.3459253281937222 -15.60144477680021 0 0 0
1052 351 3 -0.82 -8.851658487648788 3.185038377960961 -19.415696584877956 0 0 0
1352 451 3 -0.82 -4.453661058248507 1.8758136584647396 -14.691412214072589 0 0 0
1351 451 2 0.52 -3.968131703236047 1.1820900672894297 -15.11099278794334 0 0 0
1596 532 1 0.3 1.708445855324321 -3.3008699269918296 -17.506472007954425 0 0 0
1025 342 3 -0.82 -3.1477551662992873 -0.5985891541359756 -15.301123852944098 0 0 0
1026 342 1 0.3 -1.8615502098731014 -0.7761603562913528 -15.900350924643202 0 0 0
1380 460 1 0.3 -2.5884962800107836 1.217010036804858 -19.6797562712311 0 0 1
1652 551 3 -0.82 1.3547518823102926 3.02938733250377 -16.52928390658758 0 0 0
1653 551 1 0.3 1.2364126287469368 1.6779441080365416 -16.98152817701081 0 0 0
1024 342 2 0.52 -3.2820876157080434 -1.2884924002079003 -14.669438067433688 0 0 0
1379 460 3 -0.82 -2.983877738158121 2.3660091882111516 -20.43368083098105 0 0 1
2278 760 2 0.52 5.274408090333573 2.8290686478737825 -20.105363194472954 0 0 1
2279 760 3 -0.82 4.594885431772489 2.629387634015938 -20.730994113004158 0 0 1
2251 751 2 0.52 7.555603588211294 2.553955906428726 -20.122728228268798 0 0 0
2252 751 3 -0.82 7.035145627608209 2.766039267989406 -19.363002159662113 0 0 0
2253 751 1 0.3 7.404394669781098 1.8842721098673039 -18.299484585723075 0 0 0
2579 860 3 -0.82 8.60125002879451 2.0490955490217715 21.04875009940764 0 0 0
1921 641 2 0.52 8.890251952097746 -3.264112987085806 -21.34103891466755 0 0 0
2223 741 1 0.3 11.141090819372586 -2.722652155603697 -19.47277854101512 0 0 0
2221 741 2 0.52 11.55640763545729 -2.8231473590449454 -21.37355975804245 0 0 0
2222 741 3 -0.82 10.770819056030795 -2.84365343556788 -20.848709236177022 0 0 0
2256 752 1 0.3 13.743003842033168 1.304446709193524 -15.896003008440507 0 0 0
2523 841 1 0.3 15.15487573040928 -1.2655733025638263 -20.269938613461655 0 0 0
152 51 3 -0.82 18.792231322658623 1.0622249102327146 -17.38462004751215 -1 0 0
151 51 2 0.52 18.629658224894868 0.8357477288262594 -18.28756859527912 -1 0 0
153 51 1 0.3 20.10595900941567 0.6185909817107245 -17.034997000377217 -1 0 0
2522 841 3 -0.82 15.389517578361037 -2.109081477578467 -19.139290587416642 0 0 0
2521 841 2 0.52 15.6898873791122 -1.5722726309635462 -18.421897849426603 0 0 0
2821 941 2 0.52 19.81986515936766 -0.04439937219010304 -20.29090467957205 0 0 0
2822 941 3 -0.82 18.938822945702427 -0.17606691537961794 -20.606287753373426 0 0 0
2498 833 3 -0.82 16.663880300851034 -0.8312665685126639 -16.43308705161812 0 0 0
2497 833 2 0.52 17.132526217425095 -0.010890838883589993 -16.45296715933057 0 0 0
2823 941 1 0.3 18.825947041038425 -1.5167305995004412 -21.090857342986084 0 0 0
2499 833 1 0.3 17.54209028229441 -1.843540566441419 -15.93411173847464 0 0 0
123 41 1 0.3 20.995872758845813 2.5925899918491666 -20.239125159805923 -1 0 0
122 41 3 -0.82 -21.40051445334772 1.2533730347002 -20.216450138329833 0 0 0
489 163 1 0.3 -18.364276254955822 7.3751512145238 -15.617495557062949 0 0 0
487 163 2 0.52 -16.877860250535036 8.328134317229434 -16.440871287452886 0 0 0
488 163 3 -0.82 -17.55639923112936 8.538016069911887 -15.817515121661215 0 0 0
213 71 1 0.3 20.560870379210364 7.252418762846062 -16.699110639430234 -1 0 0
2553 851 1 0.3 18.342115710072342 4.152293059918701 -15.68529407707296 0 0 0
481 161 2 0.52 -10.83635009299344 3.629020589728487 -19.36327764359864 0 0 0
482 161 3 -0.82 -11.770560155626985 3.710846134386287 -19.246682077001164 0 0 0
786 262 1 0.3 -15.737645427896442 6.175639233391802 -18.088117487060636 0 0 0
785 262 3 -0.82 -15.295812324278444 7.225080240273069 -17.2230250977987 0 0 0
483 161 1 0.3 -12.182476448970958 4.98025583962453 -19.760347120945763 0 0 0
782 261 3 -0.82 -10.152855925481393 8.537892208526522 -19.976468381163965 0 0 0
784 262 2 0.52 -14.614927462087806 6.8851660334689235 -16.66276377924127 0 0 0
814 272 2 0.52 -12.314790301620562 6.407022331134865 -14.989641831757597 0 0 0
815 272 3 -0.82 -12.986371069759986 6.9983740564876555 -15.293483915554013 0 0 0
1086 362 1 0.3 -10.296793754321708 5.145213958147433 -16.24910452720687 0 0 0
1053 351 1 0.3 -7.836077550607021 4.118367805816785 -19.038311733563827 0 0 0
781 261 2 0.52 -9.38740709749503 8.162486214864323 -19.56879559176452 0 0 0
1111 371 2 0.52 -7.192534638454701 7.197099641571604 -19.0983583514546 0 0 0
1381 461 2 0.52 -5.856659039326594 6.043058769328006 -21.176241325986304 0 0 0
1382 461 3 -0.82 -6.006627552857768 6.1925292965355965 -20.255259531185278 0 0 0
1383 461 1 0.3 -4.83868437843557 5.791129783287548 -19.534346953719584 0 0 0
1112 371 3 -0.82 -7.8529903016834375 7.5324792255195945 -18.5115370144404 0 0 0
1113 371 1 0.3 -7.226142602718145 8.421811961365545 -17.58359463183017 0 0 0
1651 551 2 0.52 0.5062199286879157 3.3220582198907103 -16.233687605034902 0 0 0
1389 463 1 0.3 -2.0225031763363255 4.466571293758442 -16.96583586432962 0 0 0
1388 463 3 -0.82 -1.2123487643892155 4.333629997974413 -15.794979671204892 0 0 0
1411 471 2 0.52 -1.9638070361681166 8.61287596490438 -17.81610832361226 0 0 0
1715 572 3 -0.82 -0.16708536518432027 9.126270210635454 -17.527286600834124 0 0 0
1951 651 2 0.52 2.9409605606722593 4.065476099041927 -17.198901574822706 0 0 0
1412 471 3 -0.82 -2.8025297705557435 8.341839876088429 -18.156874279268024 0 0 0
1716 572 1 0.3 0.542070434078429 7.888079666052143 -17.43289379078285 0 0 0
1953 651 1 0.3 3.3473613163030116 4.975808189597842 -18.87272727285315 0 0 0
1954 652 2 0.52 5.254707700941946 5.637939107529711 -16.67377286310705 0 0 0
1955 652 3 -0.82 6.04347698781142 5.980728802923931 -16.282137736458413 0 0 0
1952 651 3 -0.82 3.637391733309382 4.6183492383238125 -17.518831688369637 0 0 0
1681 561 2 0.52 6.620213996454069 7.602134874069094 -18.946078899314394 0 0 0
1682 561 3 -0.82 6.445158370216841 8.529130221369854 -18.890611928617425 0 0 0
1984 662 2 0.52 7.1342569832843274 5.060164800397018 -19.33914025677919 0 0 0
1985 662 3 -0.82 6.9699901025379525 5.8035846520731695 -19.898945620966156 0 0 0
1986 662 1 0.3 8.134006377979237 6.03735913678365 -20.69602991516475 0 0 0
1718 573 3 -0.82 8.739938303896238 5.193555167133386 -17.128795057384316 0 0 0
1717 573 2 0.52 7.8622852207424785 5.44447318708924 -16.88424683529231 0 0 0
1740 580 1 0.3 7.730484235302864 10.418197882811736 21.375571142668825 0 0 0
2851 951 2 0.52 13.095924928810142 6.269237361465148 -18.25658281435939 0 0 0
2852 951 3 -0.82 13.333623617526499 5.36843657974903 -18.41500352005336 0 0 0
2582 861 3 -0.82 12.945663745584035 8.245380701601235 -17.0073476467148 0 0 0
2583 861 1 0.3 12.510194295268349 9.594712165738198 -16.821340332360588 0 0 0
2581 861 2 0.52 12.76882263848944 7.761329823168786 -16.21522409727966 0 0 0
2853 951 1 0.3 13.841596991591075 4.812656117846643 -17.19927373887923 0 0 0
1719 573 1 0.3 9.56416650895595 5.229226048677745 -15.960761142954752 0 0 0
2886 962 1 0.3 16.514409833498448 8.513864355005264 -18.226855677776843 0 0 0
2884 962 2 0.52 16.947264592479776 7.364320317054958 -19.739053551197024 0 0 0
2885 962 3 -0.82 17.364127776541523 8.086738691784952 -19.29478398795277 0 0 0
2878 960 2 0.52 14.996011897625849 5.662305089953119 -19.839794977442473 0 0 1
2880 960 1 0.3 16.537146037477306 4.490128542811192 -20.05535326285412 0 0 1
2879 960 3 -0.82 15.910523014258388 5.775521350824405 -20.049296341554832 0 0 1
211 71 2 0.52 19.07499902029526 7.847574514171072 -17.809755803753244 -1 0 0
212 71 3 -0.82 19.471848939524413 8.12913755835121 -16.999650527157026 -1 0 0
2586 862 1 0.3 18.914226278539928 10.983296794701264 -14.135565389162519 0 0 0
244 82 2 0.52 -20.57347225873822 14.802136859767867 -16.957580719088565 0 0 0
544 182 2 0.52 -18.32137655823643 13.563072480504953 -16.114464680056134 0 0 0
245 82 3 -0.82 -19.697592537456707 14.45914142645994 -17.04829788270598 0 0 0
246 82 1 0.3 -19.204802640768417 14.810092356647257 -18.344029088587376 0 0 0
783 261 1 0.3 -11.042940610372126 8.981242874621017 -18.948792716167965 0 0 0
511 171 2 0.52 -14.303285876896643 11.92373687058507 -17.03820527977015 0 0 0
513 171 1 0.3 -14.834942681619127 10.723134783214213 -18.477459785908994 0 0 0
512 171 3 -0.82 -13.997670509219198 11.735342933195707 -17.912360022533665 0 0 0
811 271 2 0.52 -14.228934420938439 12.886750913156266 -19.432964389208944 0 0 0
518 173 3 -0.82 -15.001649771410047 12.990091785786557 -15.538186745326474 0 0 0
812 271 3 -0.82 -13.944866771667034 13.471159075085748 -20.119121156629195 0 0 0
813 271 1 0.3 -15.049042897766832 13.71326300945702 -20.994968502300328 0 0 0
841 281 2 0.52 -12.679859769714328 14.876840277658847 -19.654376179359964 0 0 0
842 281 3 -0.82 -11.981323813814006 15.510359934835162 -19.715526520318615 0 0 0
838 280 2 0.52 -11.833750570863595 13.20964785827319 -20.73453432996403 0 0 1
840 280 1 0.3 -10.384822729371047 12.391118594142196 -19.721531491771724 0 0 1
846 282 1 0.3 -8.405590797927498 15.445727854969544 -18.241670676328077 0 0 0
1441 481 2 0.52 -5.635133004342787 15.015347186242725 -20.204806106404614 0 0 0
1442 481 3 -0.82 -5.916153564912095 14.119105620024666 -20.10080668410201 0 0 0
1443 481 1 0.3 -6.181931569937422 13.573740103116354 -21.39574539734842 0 0 0
1119 373 1 0.3 -7.102027248408847 11.944111988286377 -16.43989148265492 0 0 0
1117 373 2 0.52 -8.274458327029922 11.855588277154208 -14.886467243970891 0 0 0
1147 383 2 0.52 -7.772653688620091 14.45323349886834 -13.937932826198944 0 0 0
1118 373 3 -0.82 -7.764864167124754 11.237662717849734 -15.387986342616927 0 0 0
1413 471 1 0.3 -3.6310524329377714 9.499002566851676 -18.29634664249987 0 0 0
1714 572 2 0.52 0.40154438927383396 9.767955989920885 -17.924701518336924 0 0 0
1416 472 1 0.3 -2.684863411851431 12.810363901133098 -16.47145451322581 0 0 0
1713 571 1 0.3 2.3207701521403443 10.283143104153872 -20.164145509648296 0 0 0
1712 571 3 -0.82 2.1879178612764534 10.678710738023778 -18.796372033802903 0 0 0
1711 571 2 0.52 2.3879240708874185 11.599912706033333 -18.72986325511175 0 0 0
1415 472 3 -0.82 -2.9343793071668536 13.150946010408045 -15.105191929313424 0 0 0
1414 472 2 0.52 -2.1938330099779755 13.638046150810961 -14.777527423745504 0 0 0
2016 672 1 0.3 0.7351908021119833 11.462117805855225 -14.491135653224827 0 0 0
1683 561 1 0.3 5.15887143848386 8.713060381516918 -18.29348261508888 0 0 0
1981 661 2 0.52 7.773237774992829 10.255397245506252 -18.224045495695957 0 0 0
1982 661 3 -0.82 8.434588919626606 10.466395286187542 -17.582849177922427 0 0 0
1738 580 2 0.52 6.272266737154272 9.645982872086211 -20.485945292901313 0 0 1
1739 580 3 -0.82 6.389966995444269 10.414026154903706 -21.023807201680246 0 0 1
2041 681 2 0.52 5.906601378147705 12.23772259782356 -20.930386964280018 0 0 0
2042 681 3 -0.82 5.75389031925981 13.152814087404284 -20.750591335322337 0 0 0
2044 682 2 0.52 6.709674414334142 14.766712344744835 -20.129561807331328 0 0 0
1743 581 1 0.3 3.2431708290294594 14.714324414850498 -17.940215480741294 0 0 0
1742 581 3 -0.82 3.5223252812905237 13.428005431500385 -18.499128737540765 0 0 0
1741 581 2 0.52 4.179441853114284 13.529067142222178 -19.1707105610703 0 0 0
2011 671 2 0.52 8.418068688859314 12.090020704360594 -16.506196484627324 0 0 0
2012 671 3 -0.82 8.737761040235178 12.860117669686336 -16.061464258535587 0 0 0
2045 682 3 -0.82 6.933398641838988 15.576549770126785 -19.696955148679884 0 0 0
2046 682 1 0.3 8.277436383149752 15.4791039433514 -19.218421295787003 0 0 0
1983 661 1 0.3 9.2189339640503 9.296025141542646 -17.337973008889506 0 0 0
2343 781 1 0.3 10.956962004574095 15.688126788604979 -16.926186622986705 0 0 0
2341 781 2 0.52 10.344680962016511 13.974407633493701 -16.23060342220527 0 0 0
2342 781 3 -0.82 10.895494959966321 14.675800302598876 -15.918047419915617 0 0 0
2613 871 1 0.3 11.354814333497671 8.164622722256585 -21.019224986428153 0 0 0
2612 871 3 -0.82 12.692217956961372 8.631127075939432 -21.215828676876754 0 0 0
2584 862 2 0.52 18.631426791180154 9.764729296055805 -15.629109619408263 0 0 0
2913 971 1 0.3 14.785818023158036 12.611347531721218 -15.857418457165256 0 0 0
185 62 3 -0.82 20.050568610543714 9.459742830185004 -20.159848744731967 -1 0 0
2945 982 3 -0.82 20.310916789932087 15.16284095073588 -16.77558965617967 0 0 0
184 62 2 0.52 19.237055039983908 9.06252968807344 -20.430875568801216 -1 0 0
186 62 1 0.3 19.76969794546026 10.412673461243418 -19.131275620077723 -1 0 0
2946 982 1 0.3 19.94289410300852 13.899596725577542 -17.33567994394101 0 0 0
2911 971 2 0.52 16.697143710694554 12.330774163164453 -16.10974504143407 0 0 0
2912 971 3 -0.82 15.995439998593376 12.71450938115002 -16.61313008701978 0 0 0
2585 862 3 -0.82 18.28658788025303 10.603372757349945 -15.363024363863065 0 0 0
2944 982 2 0.52 19.640806386207707 15.426109187560893 -16.163476020189552 0 0 0
271 91 2 0.52 -19.033332766635997 19.769907394708003 -20.52214926592061 0 0 0
272 91 3 -0.82 -18.605341037942782 19.48454286478032 -19.729414123900582 0 0 0
571 191 2 0.52 -19.353847964036678 19.57594111027647 -17.77840753891943 0 0 0