LAMMPS data file via write_data, version 29 Oct 2020, timestep = 7515

3000 atoms
3 atom types
2000 bonds
2 bond types
1000 angles
1 angle types

-21.47762342618914 20.598957426139222 xlo xhi
-20.852290426164227 21.224290426164227 ylo yhi
-21.03928942613922 21.037291426189142 zlo zhi

Masses

1 15.035
2 1.008
3 15.999

Pair Coeffs # lj/cut/coul/cut

1 0.2072 3.748
2 0.021 1.58
3 0.1554 3.192

Bond Coeffs # zero

1 1.43
2 0.945

Angle Coeffs # zero

1 108.5

Atoms # full

2701 901 2 0.52 -16.671100875307815 -19.126459163330825 -18.156978544236786 1 0 0
2702 901 3 -0.82 -17.540587450954906 -18.875617533303167 -17.88482818482524 1 0 0
2703 901 1 0.3 -17.447718726008002 -17.66646640386513 -17.12709986154868 1 0 0
271 91 2 0.52 -19.19040470876633 -19.973161264891104 -16.599749699054296 0 1 0
2401 801 2 0.52 -19.398449756735086 -18.26116232809004 -19.03642092850472 1 0 0
2402 801 3 -0.82 -20.3400766976977 -18.19147583672323 -18.998017409879314 1 0 0
329 110 3 -0.82 -14.877984508506207 -19.5419045321333 -17.58508650623928 0 0 1
2403 801 1 0.3 -20.90418834443173 -19.446455634702467 -19.387410345224424 1 0 0
334 112 2 0.52 -14.39004725662655 -15.070021589106918 -16.617589398670386 0 0 0
335 112 3 -0.82 -14.562143201935463 -14.917212698152102 -15.70105944554669 0 0 0
871 291 2 0.52 -10.494562331708709 -18.961260883395536 -18.900972828126537 0 1 0
872 291 3 -0.82 -10.713910926837338 -18.056476606844452 -19.06297253771893 0 1 0
58 20 2 0.52 -13.741143207857792 -15.600451332009182 -19.333504775715376 0 0 1
59 20 3 -0.82 -14.19652404424179 -15.153750265595715 -18.636310873326167 0 0 1
604 202 2 0.52 -11.813589387209802 -16.87867845941979 -20.377985411591933 0 0 0
605 202 3 -0.82 -12.472456248463127 -16.370561593063943 -20.825985994532044 0 0 0
606 202 1 0.3 -11.879931904127604 -15.781662427654956 20.090019187214708 0 0 -1
1172 391 3 -0.82 -10.738588744992803 21.01819548742822 -19.493571134034614 0 0 0
336 112 1 0.3 -13.391198127251597 -15.261517444388263 -14.955965410860138 0 0 0
330 110 1 0.3 -13.87276009778461 -18.553418582483676 -17.82434065248386 0 0 1
873 291 1 0.3 -9.548361031668088 -17.259513588037493 -18.836772100942063 0 1 0
928 310 2 0.52 -5.393254998312173 -17.48076157782493 20.313604718827605 0 0 0
929 310 3 -0.82 -6.229205640762119 -17.90128515221438 20.181930435287263 0 0 0
1471 491 2 0.52 -5.564427902138856 -19.7728520637376 20.89549972546702 0 1 -1
930 310 1 0.3 -6.516561405150277 -17.911065577395966 18.78116126164442 0 0 0
1202 401 3 -0.82 -2.7179955401167994 -17.705013572937737 20.296801597666054 0 0 -1
1475 492 3 -0.82 -4.919691646809056 -17.42548096139482 -16.60476083869068 0 1 0
904 302 2 0.52 -7.102278016517781 -18.36145046782148 -15.852020151223817 0 0 0
905 302 3 -0.82 -7.982262168360599 -18.490646651445914 -15.532758150684913 0 0 0
1203 401 1 0.3 -2.3374476620051183 -17.461199298125816 -20.423106436064927 0 0 0
1476 492 1 0.3 -5.527239843477783 -16.59877809590101 -17.60088875962562 0 1 0
901 301 2 0.52 -8.173434684753266 -20.512969509853583 -15.923544336945183 0 0 0
1474 492 2 0.52 -4.13441217466578 -16.99815314875659 -16.298623993938126 0 1 0
1502 501 3 -0.82 1.5697928158069168 -20.124174522560438 -18.288823190150495 0 0 0
1503 501 1 0.3 0.17424144029718747 -20.059848134160013 -18.593981715107496 0 0 0
1501 501 2 0.52 2.0450179575464027 -19.65645894356701 -18.958446125371342 0 0 0
1205 402 3 -0.82 -2.391487527840578 -16.762498947664408 -15.27639858290399 0 0 0
1802 601 3 -0.82 5.1435893211330885 -17.985940115902405 -17.487413353111016 0 0 0
1532 511 3 -0.82 2.879684658348822 -16.767853010956003 -19.233789219735705 0 0 0
1531 511 2 0.52 3.699704304822916 -16.82578028066371 -18.767736833236324 0 0 0
1771 591 2 0.52 2.8730043802597542 -20.56729594234436 -16.929967066695674 0 1 0
1772 591 3 -0.82 3.804846183206486 -20.67081488925729 -16.811862343637 0 1 0
1801 601 2 0.52 4.836404166138546 -18.857343626552357 -17.289206182778553 0 0 0
1803 601 1 0.3 6.250033906747763 -17.689249559838093 -16.631505439981517 0 0 0
1773 591 1 0.3 4.157337942895751 20.059873545658785 -17.14223538642013 0 0 0
1533 511 1 0.3 2.2379180103948357 -15.542185156146058 -18.872268820167115 0 0 0
1236 412 1 0.3 2.4365642625038966 -15.539220824267934 -15.257364843131505 0 0 0
2698 900 2 0.52 14.023037105170403 -19.317440382331114 -19.35673045576015 0 1 1
2134 712 2 0.52 11.187411908780746 -16.38628430591207 -16.19896293634247 0 0 0
2135 712 3 -0.82 10.643229802464674 -16.1305432627318 -15.46995396787256 0 0 0
2699 900 3 -0.82 13.126793631698177 -19.58571031522186 -19.22342174954282 0 1 1
2133 711 1 0.3 11.784221328462557 -16.423465294318213 -18.598452212107134 0 0 0
2131 711 2 0.52 13.293518742794525 -15.22791235468334 -18.301736627486104 0 0 0
2132 711 3 -0.82 12.724346108926333 -15.750062092258059 -17.757312027732223 0 0 0
2374 792 2 0.52 11.8318474422992 -20.378389057691763 -18.011040881158117 0 1 0
2376 792 1 0.3 10.71076325419164 -19.580846187154506 -16.63174450885314 0 1 0
2700 900 1 0.3 12.626963113210046 -20.12384878052352 -20.45036906422183 0 1 1
2436 812 1 0.3 14.479820650002559 -18.600669656029908 -15.939115448633292 0 0 0
2102 701 3 -0.82 16.410177558232782 -19.036831485245305 -19.235474354135253 0 0 0
2434 812 2 0.52 14.245535188128201 -16.84680877399036 -16.75424984014987 0 0 0
2101 701 2 0.52 16.158680120312155 -18.59932041782458 -18.436521650370214 0 0 0
2435 812 3 -0.82 14.974597482953413 -17.422504743284975 -16.580945898287396 0 0 0
2731 911 2 0.52 -21.38157087797542 -16.62669536414534 -17.561083059800882 1 0 0
2732 911 3 -0.82 20.165319839996272 -15.893109405610595 -17.288549588648056 0 0 0
2734 912 2 0.52 19.365655196358126 -15.1149141565036 -15.676533872776243 0 0 0
2733 911 1 0.3 19.535733698178774 -15.333857392665298 -18.44426652434195 0 0 0
63 21 1 0.3 -18.93193854808151 -14.824164615398754 -19.42044662762567 0 0 0
60 20 1 0.3 -15.041294097758716 -14.154591461593213 -19.2132583973804 0 0 1
33 11 1 0.3 -20.59845344678003 -12.753487177866496 -17.002747312319467 0 0 0
365 122 3 -0.82 -16.18052697928414 -9.306444286561215 -19.741578654551564 0 0 0
366 122 1 0.3 -17.183288408034727 -10.29142604933486 -19.47870330179226 0 0 0
364 122 2 0.52 -15.615116667112293 -9.24533281037964 -18.986880805376266 0 0 0
36 12 1 0.3 -18.232389755461128 -14.609580865620263 -15.36587059269353 0 0 0
35 12 3 -0.82 -17.27706174056775 -14.022635607964602 -16.253376592805893 0 0 0
34 12 2 0.52 -16.42867080148944 -14.396534299684191 -16.070549508829295 0 0 0
698 233 3 -0.82 -15.397790149515966 -9.510518299302364 -16.802997109244647 0 0 0
699 233 1 0.3 -14.823823421735533 -10.648741156629823 -16.155050996934385 0 0 0
2767 923 2 0.52 -20.7296588918067 -10.060576516160149 -16.677337190200184 1 0 0
2768 923 3 -0.82 -20.754131867497495 -9.146619669830917 -16.43842763276566 1 0 0
332 111 3 -0.82 -10.846704996640712 -12.511018847075816 -20.077149178633665 0 0 0
333 111 1 0.3 -11.489696936150139 -13.13384463843385 -18.96203814845153 0 0 0
331 111 2 0.52 -11.480849780005666 -11.974424458236808 -20.527614348672007 0 0 0
935 312 3 -0.82 -3.875416784980228 -11.129744673916397 -17.634549249368526 0 0 0
666 222 1 0.3 -10.581071147553413 -12.295565710964357 -14.349716128906007 0 0 0
933 311 1 0.3 -6.8835888873304345 -13.720047920017766 -15.186514079757615 0 0 0
934 312 2 0.52 -3.2606087774765307 -10.867316561139592 -16.96661499934312 0 0 0
1231 411 2 0.52 -3.5522413662116676 -12.856504094066135 -18.50849141132609 0 0 0
1232 411 3 -0.82 -3.232591461847008 -13.691825986652544 -18.81353842913157 0 0 0
936 312 1 0.3 -4.988392961116848 -10.2324097499659 -17.604595286765658 0 0 0
630 210 1 0.3 -7.280730323821285 -13.698157206498866 -20.953582047919056 0 0 1
1832 611 3 -0.82 1.7755352367214066 -12.561003573121221 -17.791857342390117 0 0 0
1833 611 1 0.3 1.6726097111454017 -11.242693214712347 -18.33618017047695 0 0 0
1831 611 2 0.52 2.6308802107515987 -12.658567072808722 -17.402166205645067 0 0 0
1233 411 1 0.3 -1.8139172908483445 -13.60493092431097 -18.970496960708235 0 0 0
1260 420 1 0.3 0.5897993842329399 -11.512687641252917 19.766348757312436 0 0 0
1505 502 3 -0.82 4.4585466100074385 -12.874574258538397 -16.787410579392677 0 0 0
1504 502 2 0.52 4.979259451660976 -12.13138594717369 -16.52373916836087 0 0 0
1506 502 1 0.3 5.333910383914937 -13.97932407504554 -17.028427914391994 0 0 0
1565 522 3 -0.82 5.812834884339335 -10.414810728611899 -15.904844591703839 0 0 0
2190 730 1 0.3 7.709834721394884 -12.222728326162109 -20.0329454736289 0 0 1
2188 730 2 0.52 6.366836109015782 -10.81970162354543 -19.8805232423809 0 0 1
2189 730 3 -0.82 6.6507374932571395 -11.547752983129394 -19.349173189222252 0 0 1
1889 630 3 -0.82 5.452613642721708 -10.143666868440626 20.310200278892246 0 0 0
1566 522 1 0.3 4.711884551682296 -9.631084954269259 -15.43739887021517 0 0 0
2163 721 1 0.3 8.964120107892416 -8.913778659324047 -20.430605733109623 0 0 0
2166 722 1 0.3 10.040183713986085 -13.161759769457452 -16.816535771022508 0 0 0
2490 830 1 0.3 14.673107523867898 -9.759527291939094 -18.935734526547563 0 0 1
2458 820 2 0.52 11.856008111970631 -11.025513654949464 20.892952902596875 0 0 0
2459 820 3 -0.82 11.33480227510892 -11.579808884727504 -20.62318776792697 0 0 1
2460 820 1 0.3 12.177507111524967 -12.105711974174708 -19.594548976943607 0 0 1
31 11 2 0.52 -20.73056649055728 -11.980399452818002 -18.786071348316916 0 0 0
32 11 3 -0.82 -20.757854671743843 -11.65187860681917 -17.90045165022322 0 0 0
2461 821 2 0.52 15.494564168608086 -13.66778508475748 -18.82089457389794 0 0 0
2462 821 3 -0.82 14.810030404681555 -14.224307805729584 -19.15955316630758 0 0 0
2431 811 2 0.52 16.59918327327474 -11.630610355357643 -18.20604452275026 0 0 0
2432 811 3 -0.82 17.007994019722176 -12.479856179667113 -18.137858924378282 0 0 0
2433 811 1 0.3 18.025975633940327 -12.414247106026233 -17.135745115845573 0 0 0
2489 830 3 -0.82 15.799708255659056 -9.918547495676323 -18.069532166339037 0 0 1
2488 830 2 0.52 15.812404773636452 -9.197638969053342 -17.45869490365283 0 0 1
2463 821 1 0.3 15.307463623327891 -14.903067585318281 -20.31569701934633 0 0 0
697 233 2 0.52 -15.726610907043195 -8.922437655307746 -16.140402539016524 0 0 0
93 31 1 0.3 -16.803911880521134 -4.927931756435854 -17.80818488271993 0 0 0
92 31 3 -0.82 -15.881292418772976 -5.50604348609496 -16.88115556960916 0 0 0
2769 923 1 0.3 -19.556387716160398 -8.522576649962238 -16.90832388628568 1 0 0
64 22 2 0.52 -16.320989205741213 -6.668027674468757 -15.163010101906288 0 0 0
91 31 2 0.52 -15.003162027793604 -5.319932646750793 -17.176522548620127 0 0 0
661 221 2 0.52 -10.163877038436084 -7.56366034170574 -19.994374377546958 0 0 0
391 131 2 0.52 -13.535874755028242 -6.242604864402264 -19.32255499192485 0 0 0
392 131 3 -0.82 -14.060494363116277 -5.592924047384374 -19.764914809422642 0 0 0
394 132 2 0.52 -13.896984368676918 -8.07864255724535 -17.81935890160108 0 0 0
395 132 3 -0.82 -13.10875879649143 -7.6828939363720075 -18.158586373897606 0 0 0
396 132 1 0.3 -12.000597766371964 -8.136609359011457 -17.37695684831758 0 0 0
696 232 1 0.3 -9.373042572230412 -4.5539156097416615 -15.538036415311428 0 0 0
426 142 1 0.3 -12.203351039008615 -3.3637554571889012 -18.014316312873063 0 0 0
694 232 2 0.52 -9.799445607254732 -5.933570624926041 -14.230330215425319 0 0 0
695 232 3 -0.82 -9.252571368294737 -5.163157681205025 -14.249962650311598 0 0 0
663 221 1 0.3 -8.362754625649064 -6.950440047872512 -19.575706907908536 0 0 0
662 221 3 -0.82 -9.679888979066765 -6.75872260124471 -20.098415960396924 0 0 0
693 231 1 0.3 -8.287586327647436 -3.3381410592885707 -20.3197805151933 0 0 0
691 231 2 0.52 -9.593540615561647 -4.780953830202254 -20.409989525128744 0 0 0
692 231 3 -0.82 -9.491672807173332 -3.9319103204045156 -20.81215946880436 0 0 0
722 241 3 -0.82 -4.318419680999938 -4.088056372370069 -20.023208871848716 0 0 0
1296 432 1 0.3 -5.4013805875514045 -5.374274919090535 -15.608215054664498 0 0 0
721 241 2 0.52 -4.651227153964449 -3.2191071679612833 -19.85840305164101 0 0 0
723 241 1 0.3 -3.5021849552117104 -4.478866630263351 -18.91602708790087 0 0 0
1261 421 2 0.52 0.44267342734708137 -5.913484478995599 -17.289801461158472 0 0 0
1262 421 3 -0.82 0.6060869615116715 -6.844003736611791 -17.310358952361955 0 0 0
1263 421 1 0.3 1.7446370824398052 -7.086498426511396 -18.14085468831886 0 0 0
1292 431 3 -0.82 1.1558752039786775 -3.849419539219337 -17.257437922125778 0 0 0
1618 540 2 0.52 3.6451285212968543 -4.350442945529132 -20.05612841121498 0 0 1
1619 540 3 -0.82 3.499919062128459 -5.280089876998794 -20.14366332175171 0 0 1
1264 422 2 0.52 0.7549085174358581 -7.975830715423113 -15.251314254347124 0 0 0
1265 422 3 -0.82 1.1057904121587576 -8.453415154379474 -14.515251740845102 0 0 0
1620 540 1 0.3 4.755228852695385 -5.912683264876353 -20.406048823591952 0 0 1
2161 721 2 0.52 9.302045578600659 -8.430909959284211 -18.573724252302362 0 0 0
1863 621 1 0.3 8.204926609099466 -7.376267321092591 -16.50829822814472 0 0 0
1861 621 2 0.52 7.3378882887992845 -9.119315884963367 -16.581696506702787 0 0 0
1862 621 3 -0.82 7.840586738479452 -8.585947663824978 -17.178188629424145 0 0 0
2220 740 1 0.3 9.104992599236244 -5.393470251991165 19.9114749531697 0 0 0
1326 442 1 0.3 4.766202873652233 -3.7868037658532607 -17.4914571516693 0 0 0
2162 721 3 -0.82 9.77158080844115 -8.35627916261296 -19.390401520221683 0 0 0
2218 740 2 0.52 9.906557314346571 -3.7617928471703515 20.61182146304722 0 0 0
2193 731 1 0.3 12.63580738944762 -6.47134023871145 -19.020199576746137 0 0 0
2191 731 2 0.52 11.501168193530077 -7.729207057587498 -19.982346882382824 0 0 0
2192 731 3 -0.82 12.415861263869495 -7.49231933735936 -19.996953687807782 0 0 0
2494 832 2 0.52 9.948429056174312 -4.594922969447964 -16.025195679856463 0 0 0
2495 832 3 -0.82 9.711505073983446 -3.9240455701041554 -16.647115640150766 0 0 0
2493 831 1 0.3 15.486230883443923 -6.546571076621511 -15.834242306885027 0 0 0
2520 840 1 0.3 16.272596169762203 -5.387968422759769 -19.484968512266665 0 0 1
2518 840 2 0.52 16.944756562284873 -6.889857669114111 -18.441947983774543 0 0 1
2519 840 3 -0.82 16.94136029116904 -6.645190872420837 -19.354701480387813 0 0 1
2491 831 2 0.52 17.22345236064558 -7.377562152777163 -15.539494108109505 0 0 0
2492 831 3 -0.82 16.51306901501634 -7.489501618845061 -16.152532554692705 0 0 0
2791 931 2 0.52 18.571785525852775 -4.638257543352513 -17.972746394261957 0 0 0
2792 931 3 -0.82 19.04127639360349 -5.3524106719905316 -17.569563996687712 0 0 0
2793 931 1 0.3 20.3704234950902 -4.913708455612436 -17.276764551574765 0 0 0
2788 930 2 0.52 18.1671952726091 -7.85250076178246 -20.46550056255903 0 0 1
2790 930 1 0.3 19.211097988018338 -9.404519634585304 -21.010358191450834 0 0 1
97 33 2 0.52 -18.94811970417017 -1.36688701590354 20.257018937622163 0 0 -1
154 52 2 0.52 -16.995131700798865 -1.3971978629079516 -17.405347526869626 0 0 0
155 52 3 -0.82 -16.446516244726336 -0.8519946229685509 -17.94827108393101 0 0 0
2855 952 3 -0.82 -17.059281709317062 0.06544593734454907 -13.76795838690116 1 0 0
153 51 1 0.3 -15.667955570837858 1.974778707493872 -20.338832218900414 0 0 0
2856 952 1 0.3 -17.815634303360444 1.0945691518429221 -14.411121994079224 1 0 0
156 52 1 0.3 -15.081676485827838 -1.0794985363438414 -17.587331104910188 0 0 0
149 50 3 -0.82 -19.64634438075752 2.5452664751860574 -21.028952154082614 0 0 1
150 50 1 0.3 -19.189718396506663 1.4723827638256282 -20.20116206550626 0 0 1
151 51 2 0.52 -16.090790169202993 0.11168035938760212 -19.95746906132735 0 0 0
152 51 3 -0.82 -15.743074668076636 0.5915388998864657 -20.693554683524063 0 0 0
424 142 2 0.52 -11.027827038398156 -1.970437373887183 -17.327169036949208 0 0 0
425 142 3 -0.82 -11.854941472047393 -2.3481536660587423 -17.069865682489514 0 0 0
456 152 1 0.3 -12.698560827406379 1.9530171314309719 -16.287462644585872 0 0 0
727 243 2 0.52 -11.99826586573814 -2.681204717945917 -15.14749611181492 0 0 0
753 251 1 0.3 -9.23331075353026 -0.2478020782231276 -18.25054014860727 0 0 0
423 141 1 0.3 -11.098490733028111 1.6225396474015454 20.904269428133126 0 0 -1
752 251 3 -0.82 -9.303600747618253 -1.2019590943302099 -17.187776306602284 0 0 0
751 251 2 0.52 -8.570370821078532 -1.06036820022317 -16.608708736553233 0 0 0
755 252 3 -0.82 -7.522816080939075 2.244404402631581 -15.073076773346372 0 0 0
1026 342 1 0.3 -5.154081177928909 -0.9786832089769426 -18.342112572746775 0 0 0
1025 342 3 -0.82 -4.0662775102673265 -1.3772973098992516 -19.180332817830557 0 0 0
781 261 2 0.52 -6.493474090379543 2.180165595453225 20.95346324767884 0 0 -1
756 252 1 0.3 -7.97697882567728 3.157741768128428 -16.07526152319652 0 0 0
1056 352 1 0.3 -6.130534231987816 -1.1937811963473486 -14.629335184187816 0 0 0
1054 352 2 0.52 -7.102830781383728 0.39014035126205115 -15.213455090930605 0 0 0
1055 352 3 -0.82 -6.99330123221468 -0.4936659484054928 -15.529499053606568 0 0 0
1052 351 3 -0.82 -3.752329399881976 2.997089602106957 -17.14522694577739 0 0 0
1024 342 2 0.52 -3.4425160163094475 -0.6685086363177319 -19.21943602391577 0 0 0
1053 351 1 0.3 -4.266825074324743 2.2892222666982214 -16.014279866150588 0 0 0
1291 431 2 0.52 1.9397809621662851 -3.567102946531133 -17.703287368340106 0 0 0
1293 431 1 0.3 0.105870770825927 -2.9261552950694494 -17.55726627383327 0 0 0
991 331 2 0.52 -1.3198400091588454 0.5307910640421127 -18.84842440645441 0 0 0
992 331 3 -0.82 -1.8464683806000508 0.5728468550139141 -19.63193357906858 0 0 0
993 331 1 0.3 -1.9648287887605065 1.9423110642365131 -20.026118592500353 0 0 0
1651 551 2 0.52 0.6704179837706157 1.1187883158296437 -17.808298039648133 0 0 0
1652 551 3 -0.82 0.05155802509874263 0.46351593031595684 -17.524354962998586 0 0 0
1653 551 1 0.3 -0.4809851541810808 0.8608128136783684 -16.258110034637 0 0 0
1622 541 3 -0.82 2.153454772132992 2.1990462001961326 -18.307116657212497 0 0 0
1325 442 3 -0.82 3.8498067470183237 -2.865373319334477 -18.08812065874408 0 0 0
1324 442 2 0.52 4.345138284537203 -2.208188169633491 -18.552608222758746 0 0 0
1591 531 2 0.52 5.793482761344844 -1.040136013416614 -20.45898398691366 0 0 0
1592 531 3 -0.82 5.835354422681899 -1.6659779283866811 -19.752186215535342 0 0 0
1593 531 1 0.3 7.176818378880704 -2.151633058213566 -19.655042911295507 0 0 0
1926 642 1 0.3 3.578333680629882 0.0006360699887899557 -16.200328949077406 0 0 0
1621 541 2 0.52 2.718134819332107 2.1475971427659495 -17.55115004343808 0 0 0
1924 642 2 0.52 3.2997684865857053 1.4159421242107406 -14.890873932460174 0 0 0
1925 642 3 -0.82 3.2100850583749505 1.3312050137526015 -15.827766901529642 0 0 0
1623 541 1 0.3 2.7748904464756414 1.4962292428438886 -19.386324348366998 0 0 0
1922 641 3 -0.82 10.430151062896638 -2.9821769749572873 -19.438120915936867 0 0 0
1921 641 2 0.52 10.170390826478531 -3.4523513306277245 -18.660654242204167 0 0 0
2496 832 1 0.3 8.700403387839977 -3.0994457815081446 -16.061853433276827 0 0 0
1951 651 2 0.52 9.408154609409909 2.624992613438504 -17.802077342876355 0 0 0
1952 651 3 -0.82 9.55454749827199 2.7011971349429515 -18.732536992264812 0 0 0
1923 641 1 0.3 11.788577966865326 -2.5634901096036664 -19.282554381170083 0 0 0
2251 751 2 0.52 11.529773683654788 2.3281846621829523 -19.334797477947898 0 0 0
2221 741 2 0.52 13.764615367881099 0.957611690974737 -18.43604861768994 0 0 0
2222 741 3 -0.82 14.464534577111237 0.3569762162389267 -18.230273410438144 0 0 0
1955 652 3 -0.82 9.488536080413123 1.681722160764199 -15.681020912355168 0 0 0
1956 652 1 0.3 10.54537356184791 0.7214575354077191 -15.757241938767912 0 0 0
1954 652 2 0.52 9.71371746535906 2.3240329097701746 -15.025488794982849 0 0 0
2223 741 1 0.3 14.895536832682566 -0.2695313974104181 -19.441284742991492 0 0 0
2252 751 3 -0.82 12.45522165749744 2.2189751180436694 -19.177902837338635 0 0 0
2524 842 2 0.52 15.042344842333016 0.6558119541211482 -16.457873052750358 0 0 0
2525 842 3 -0.82 15.106762778827665 0.6781185893593857 -15.515351595492152 0 0 0
2522 841 3 -0.82 18.20536805713344 -2.5916287855219444 -18.645955231317096 0 0 0
2523 841 1 0.3 18.704636067347913 -1.688503099543187 -17.656046860593094 0 0 0
2526 842 1 0.3 16.407639588049186 1.1542491999335098 -15.16060882533585 0 0 0
2521 841 2 0.52 18.00666450923307 -2.099528113732461 -19.427841619490497 0 0 0
2821 941 2 0.52 -19.472202854599402 4.332640298924364 -20.302442747792238 1 0 0
2822 941 3 -0.82 -19.378434415720058 5.256378235579135 -20.12663310769345 1 0 0
2851 951 2 0.52 -20.14045227752789 6.974459590047012 -18.62669617485597 1 0 0
2852 951 3 -0.82 -20.632509156192356 7.426660427507834 -17.958574276824272 1 0 0
181 61 2 0.52 -15.810805359203323 6.628100590170792 -16.928670500889012 0 0 0
182 61 3 -0.82 -15.239960661704636 6.84742101684337 -17.64910553093734 0 0 0
185 62 3 -0.82 -16.26443285389496 5.773244043963398 -14.81182768958103 0 0 0
2884 962 2 0.52 -20.01487514771301 6.653357157089587 -16.045501012620157 1 0 0
2885 962 3 -0.82 -20.264818535003354 6.523372245802882 -15.143489655103574 1 0 0
183 61 1 0.3 -16.04086018943208 7.057003331484804 -18.81506360522107 0 0 0
186 62 1 0.3 -15.937772924819672 4.563629908713562 -14.122661371311366 0 0 0
2883 961 1 0.3 -18.35299742213774 8.540666239086288 -16.43504080141901 1 0 0
2886 962 1 0.3 -19.724147299555593 5.2767760742035215 -14.697960906991842 1 0 0
455 152 3 -0.82 -12.003449651471843 3.059149534097685 -15.705986230655842 0 0 0
451 151 2 0.52 -11.419589915348439 4.363508836563298 -17.42159153573235 0 0 0
452 151 3 -0.82 -11.343079335145365 4.592627431943868 -18.335180498574424 0 0 0
453 151 1 0.3 -12.654140776421793 4.63035434032663 -18.904845172978135 0 0 0
481 161 2 0.52 -9.904987803299832 6.186381337580425 -18.312888006462387 0 0 0
813 271 1 0.3 -12.296386226587812 9.336047569925451 -18.896746602075552 0 0 0
816 272 1 0.3 -11.66880818705533 6.121722970864585 -15.04001132654447 0 0 0
814 272 2 0.52 -10.770284933163879 7.842094192252016 -14.871661315876356 0 0 0
454 152 2 0.52 -12.085339634707582 3.0041928491198284 -14.766162544490516 0 0 0
484 162 2 0.52 -8.40341744896085 8.329407355304564 -16.156017226661728 0 0 0
485 162 3 -0.82 -9.005952828904244 8.73598004037187 -15.552160766158249 0 0 0
482 161 3 -0.82 -9.445045140681586 6.962774911729529 -18.032427350777308 0 0 0
483 161 1 0.3 -8.04081559381489 6.736385675309254 -18.179772385960202 0 0 0
1084 362 2 0.52 -5.011523687661626 2.8976474569530524 -18.58447900164668 0 0 0
1086 362 1 0.3 -5.1257255172914995 4.383098208153772 -19.83977072746132 0 0 0
1085 362 3 -0.82 -5.357482452198056 3.0256477639970534 -19.454491423355726 0 0 0
1441 481 2 0.52 -4.225766891285829 8.97700446353931 -19.696869264949584 0 0 0
1442 481 3 -0.82 -4.925380341208765 8.996165711621735 -20.331822105503075 0 0 0
1443 481 1 0.3 -4.381122038624209 8.681858025710781 20.46030682242524 0 0 -1
786 262 1 0.3 -4.836399800666193 8.430318839461545 -15.476714954087118 0 0 0
1051 351 2 0.52 -3.1184374725296173 3.628383206134089 -16.840850575845415 0 0 0
1113 371 1 0.3 -2.2804708619779746 6.757445934974026 -18.625956427762837 0 0 0
1355 452 3 -0.82 -1.812317992270625 4.701424252334146 -15.844529929071022 0 0 0
1383 461 1 0.3 1.5687030676654352 5.246176120518168 -16.408587854884782 0 0 0
1381 461 2 0.52 0.8509179729725318 6.8763573317462345 -17.197674536841053 0 0 0
1382 461 3 -0.82 0.5595537958540149 6.248818403307492 -16.554016384251607 0 0 0
1411 471 2 0.52 1.1837192729066928 8.167475156056252 -19.65910258150061 0 0 0
1412 471 3 -0.82 1.3933126164343754 7.3768464449235225 -19.185847936412717 0 0 0
1354 452 2 0.52 -1.0250250970770587 5.133438764832405 -16.138686824258883 0 0 0
1112 371 3 -0.82 -2.883457392848907 8.044369903165908 -18.467661904962 0 0 0
1111 371 2 0.52 -2.377868525139032 8.537182405274915 -17.839563000612284 0 0 0
1419 473 1 0.3 -1.043032469284892 8.665749080416166 -14.962094281537567 0 0 0
1413 471 1 0.3 2.083468930369495 6.4888461762591945 -20.069003110548763 0 0 0
1711 571 2 0.52 7.2022175311781105 6.0349855688373815 -18.88988175686957 0 0 0
1712 571 3 -0.82 6.363957965447444 6.11333909333457 -19.3190378994524 0 0 0
1982 661 3 -0.82 8.453885853665245 6.426627972967225 -17.422647343128435 0 0 0
1983 661 1 0.3 8.907272537791634 5.82588384435558 -16.20676485378913 0 0 0
1713 571 1 0.3 5.339492792237056 6.087972490691847 -18.32171606036835 0 0 0
1683 561 1 0.3 4.395301454959142 8.071402697178218 -15.196056520925609 0 0 0
2038 680 2 0.52 5.370216714071542 7.024042283748038 -20.82566529786927 0 0 1
1953 651 1 0.3 8.443930934900834 3.391165903745481 -19.311585404651716 0 0 0
2281 761 2 0.52 12.367439946582778 3.2084366930619304 -17.520143111173752 0 0 0
2253 751 1 0.3 13.169171763694095 3.117878865900437 -20.03058718228658 0 0 0
1981 661 2 0.52 8.506862089524148 7.3656710105255705 -17.331082216663525 0 0 0
2282 761 3 -0.82 12.384520411208456 3.641706386715004 -16.680514086291872 0 0 0
1985 662 3 -0.82 12.515323489568999 7.535742757389411 -19.431144807214626 0 0 0
2283 761 1 0.3 13.73391840625213 4.0153517088500585 -16.39010501388089 0 0 0
1984 662 2 0.52 12.475102683718951 7.755461794127928 -18.512941482889413 0 0 0
2284 762 2 0.52 11.466990497672555 3.6878275973624746 -14.790755298000388 0 0 0
1986 662 1 0.3 11.214767445818524 7.119407308042849 -19.85545832518344 0 0 0
2339 780 3 -0.82 15.60058802451428 9.380998645830047 -20.79818072348371 0 0 1
2853 951 1 0.3 -21.17767957008633 8.620500571740234 -18.526340254270856 1 0 0
2612 871 3 -0.82 15.958703494844436 7.120120894324611 -16.42268080721442 0 0 0
2582 861 3 -0.82 17.50284096657103 5.169982084077024 -14.966243028790966 0 0 0
2611 871 2 0.52 16.558024858260346 6.44079933022245 -16.15373833621957 0 0 0
2940 980 1 0.3 15.821730902738764 5.822875687143089 -19.882019122682518 0 0 1
2938 980 2 0.52 16.195553760825177 7.424135162688486 -20.926810810297603 0 0 1
2939 980 3 -0.82 16.482038759581357 6.523708575216993 -20.93920875184464 0 0 1
2613 871 1 0.3 16.680857844041007 8.350658955732243 -16.518035204420375 0 0 0
210 70 1 0.3 -18.346217212351682 10.59229875104931 -20.45211255987929 0 0 1
2882 961 3 -0.82 -17.40097011757072 9.579373511149743 -16.67907854001443 1 0 0
2881 961 2 0.52 -17.422513966370204 10.182715177836794 -15.952094385015506 1 0 0
2913 971 1 0.3 -17.51875058918314 13.025822037329977 -15.242585157918626 1 0 0
2912 971 3 -0.82 -16.957520112639056 11.753219097760496 -14.910432616918541 1 0 0
2944 982 2 0.52 -20.7450035756764 14.802809852473889 -16.754270286950764 1 0 0
2945 982 3 -0.82 -21.356787882186033 14.102647212884403 -16.92304719945341 1 0 0
511 171 2 0.52 -15.63743130713281 12.368561111040105 -19.504630847421414 0 0 0
2946 982 1 0.3 -21.32028928434469 13.192620543336911 -15.820621431952143 1 0 0
2941 981 2 0.52 -21.208853356584104 14.555901367844353 -18.658955318982244 1 0 0
2942 981 3 -0.82 -21.18621437789908 14.956090282835628 -19.514716875699428 1 0 0
2943 981 1 0.3 -20.026649706688048 15.788971901230642 -19.59559475623118 1 0 0
513 171 1 0.3 -15.047078028142241 11.721127351900702 -17.764609348900876 0 0 0
512 171 3 -0.82 -14.812590195121778 12.116000911133032 -19.118830003517065 0 0 0
846 282 1 0.3 -14.041565617826777 14.981008685867902 -16.016374360687905 0 0 0
812 271 3 -0.82 -12.422808073657144 10.3349918258059 -19.91210424487915 0 0 0
811 271 2 0.52 -12.820461040186899 11.10233537722295 -19.52994136807074 0 0 0
879 293 1 0.3 -10.136603930958339 13.422083905063968 -14.388383625507288 0 0 0
845 282 3 -0.82 -14.580989624063733 15.717538542771084 -14.91575238107634 0 0 0
569 190 3 -0.82 -11.576060117931187 16.19108459771407 20.585280158408835 0 0 0
1200 400 1 0.3 -8.00642129360286 12.821710562859675 -18.127069468277522 0 0 1
486 162 1 0.3 -9.58606520275197 9.877179624551854 -16.189307842607292 0 0 0
1143 381 1 0.3 -8.361733186889095 9.480761454469366 -20.77388069444026 0 0 0
1199 400 3 -0.82 -8.392131952410606 14.100056790228319 -18.638813036799768 0 0 1
1198 400 2 0.52 -8.637417266658751 13.998406843934237 -19.545728289773212 0 0 1
1415 472 3 -0.82 1.4565902800756163 9.916889184782232 -20.448708876488958 0 0 0
1418 473 3 -0.82 -1.5977334254640319 9.493999044891513 -15.987341628090647 0 0 0
1414 472 2 0.52 0.8979619748207064 10.515540905325551 -20.92045371743728 0 0 0
1746 582 1 0.3 2.8940262737554825 14.273559534272838 -18.698017514673793 0 0 0
1745 582 3 -0.82 2.7753627722302774 14.52766421290767 -17.295814583384367 0 0 0
1716 572 1 0.3 2.5974173370953437 10.884746353875535 -16.979744334674535 0 0 0
1715 572 3 -0.82 3.926800917954658 11.410250617640816 -16.942223194837624 0 0 0
1115 372 3 -0.82 -2.5086639505663335 11.986427982864473 -14.917467404378815 0 0 0
1417 473 2 0.52 -1.6140372707009938 10.386091470517787 -15.676054836241207 0 0 0
1744 582 2 0.52 3.1997567514769223 13.825539663384784 -16.826876270560316 0 0 0
2013 671 1 0.3 8.111243198007845 9.37051904072543 -19.09305242332003 0 0 0
1714 572 2 0.52 4.451199993088768 10.859535244979412 -16.38123127322931 0 0 0
1775 592 3 -0.82 5.910204742141538 13.846016867151793 20.898468436206834 0 0 -1
1776 592 1 0.3 5.745493704142579 12.68886894465049 -20.354278560677688 0 0 0
2011 671 2 0.52 8.040711492887361 10.164495339901183 -17.315416299442578 0 0 0
1774 592 2 0.52 6.108687996361528 14.584026767798573 -20.622289709970183 0 0 0
2015 672 3 -0.82 8.214755766635736 12.099163961896895 -16.59008631130996 0 0 0
2016 672 1 0.3 7.075398800007374 12.138305442091369 -15.726861624436339 0 0 0
2313 771 1 0.3 14.478975176540025 11.978543902166404 -18.428507556602636 0 0 0
2042 681 3 -0.82 11.357246909684463 15.325109197600735 -20.31173692355644 0 0 0
2312 771 3 -0.82 13.696023988188202 11.090594639299685 -19.230602759388063 0 0 0
2012 671 3 -0.82 8.4804476505177 9.42847362765922 -17.7127797797637 0 0 0
2043 681 1 0.3 11.37670188116281 13.918915325145914 -20.052770737054594 0 0 0