LAMMPS data file. CGCMM style. atom_style full generated by VMD/TopoTools v1.8 on Wed Dec 09 17:08:06 -0500 2020
 3000 atoms
 2000 bonds
 1000 angles
 0 dihedrals
 0 impropers
 3 atom types
 2 bond types
 1 angle types
 0 dihedral types
 0 improper types
 -25.981333 25.102667  xlo xhi
 -25.356000 25.728000  ylo yhi
 -25.542999 25.541001  zlo zhi

# Pair Coeffs
#
# 1  CH3
# 2  H
# 3  O

# Bond Coeffs
#
# 1  CH3-O
# 2  H-O

# Angle Coeffs
#
# 1  CH3-O-H

 Masses

 1 15.035000 # CH3
 2 1.008000 # H
 3 15.999000 # O

 Atoms # full

1 1 2 0.520000 -22.289133 -23.569801 -22.978800 # H IUEZ
2 1 3 -0.820000 -22.625134 -22.659801 -22.995800 # O IUEZ
3 1 1 0.300000 -24.049133 -22.733801 -22.988800 # CH3 IUEZ
4 2 2 0.520000 -22.289133 -23.569801 -17.870399 # H IUEZ
5 2 3 -0.820000 -22.625134 -22.659801 -17.887400 # O IUEZ
6 2 1 0.300000 -24.049133 -22.733801 -17.880400 # CH3 IUEZ
7 3 2 0.520000 -22.289133 -23.569801 -12.762000 # H IUEZ
8 3 3 -0.820000 -22.625134 -22.659801 -12.779000 # O IUEZ
9 3 1 0.300000 -24.049133 -22.733801 -12.772000 # CH3 IUEZ
10 4 2 0.520000 -22.289133 -23.569801 -7.653600 # H IUEZ
11 4 3 -0.820000 -22.625134 -22.659801 -7.670600 # O IUEZ
12 4 1 0.300000 -24.049133 -22.733801 -7.663600 # CH3 IUEZ
13 5 2 0.520000 -22.289133 -23.569801 -2.545200 # H IUEZ
14 5 3 -0.820000 -22.625134 -22.659801 -2.562200 # O IUEZ
15 5 1 0.300000 -24.049133 -22.733801 -2.555200 # CH3 IUEZ
16 6 2 0.520000 -22.289133 -23.569801 2.563200 # H IUEZ
17 6 3 -0.820000 -22.625134 -22.659801 2.546200 # O IUEZ
18 6 1 0.300000 -24.049133 -22.733801 2.553200 # CH3 IUEZ
19 7 2 0.520000 -22.289133 -23.569801 7.671600 # H IUEZ
20 7 3 -0.820000 -22.625134 -22.659801 7.654600 # O IUEZ
21 7 1 0.300000 -24.049133 -22.733801 7.661600 # CH3 IUEZ
22 8 2 0.520000 -22.289133 -23.569801 12.780000 # H IUEZ
23 8 3 -0.820000 -22.625134 -22.659801 12.763000 # O IUEZ
24 8 1 0.300000 -24.049133 -22.733801 12.770000 # CH3 IUEZ
25 9 2 0.520000 -22.289133 -23.569801 17.888401 # H IUEZ
26 9 3 -0.820000 -22.625134 -22.659801 17.871401 # O IUEZ
27 9 1 0.300000 -24.049133 -22.733801 17.878401 # CH3 IUEZ
28 10 2 0.520000 -22.289133 -23.569801 22.996801 # H IUEZ
29 10 3 -0.820000 -22.625134 -22.659801 22.979801 # O IUEZ
30 10 1 0.300000 -24.049133 -22.733801 22.986801 # CH3 IUEZ
31 11 2 0.520000 -22.289133 -18.461401 -22.978800 # H IUEZ
32 11 3 -0.820000 -22.625134 -17.551401 -22.995800 # O IUEZ
33 11 1 0.300000 -24.049133 -17.625401 -22.988800 # CH3 IUEZ
34 12 2 0.520000 -22.289133 -18.461401 -17.870399 # H IUEZ
35 12 3 -0.820000 -22.625134 -17.551401 -17.887400 # O IUEZ
36 12 1 0.300000 -24.049133 -17.625401 -17.880400 # CH3 IUEZ
37 13 2 0.520000 -22.289133 -18.461401 -12.762000 # H IUEZ
38 13 3 -0.820000 -22.625134 -17.551401 -12.779000 # O IUEZ
39 13 1 0.300000 -24.049133 -17.625401 -12.772000 # CH3 IUEZ
40 14 2 0.520000 -22.289133 -18.461401 -7.653600 # H IUEZ
41 14 3 -0.820000 -22.625134 -17.551401 -7.670600 # O IUEZ
42 14 1 0.300000 -24.049133 -17.625401 -7.663600 # CH3 IUEZ
43 15 2 0.520000 -22.289133 -18.461401 -2.545200 # H IUEZ
44 15 3 -0.820000 -22.625134 -17.551401 -2.562200 # O IUEZ
45 15 1 0.300000 -24.049133 -17.625401 -2.555200 # CH3 IUEZ
46 16 2 0.520000 -22.289133 -18.461401 2.563200 # H IUEZ
47 16 3 -0.820000 -22.625134 -17.551401 2.546200 # O IUEZ
48 16 1 0.300000 -24.049133 -17.625401 2.553200 # CH3 IUEZ
49 17 2 0.520000 -22.289133 -18.461401 7.671600 # H IUEZ
50 17 3 -0.820000 -22.625134 -17.551401 7.654600 # O IUEZ
51 17 1 0.300000 -24.049133 -17.625401 7.661600 # CH3 IUEZ
52 18 2 0.520000 -22.289133 -18.461401 12.780000 # H IUEZ
53 18 3 -0.820000 -22.625134 -17.551401 12.763000 # O IUEZ
54 18 1 0.300000 -24.049133 -17.625401 12.770000 # CH3 IUEZ
55 19 2 0.520000 -22.289133 -18.461401 17.888401 # H IUEZ
56 19 3 -0.820000 -22.625134 -17.551401 17.871401 # O IUEZ
57 19 1 0.300000 -24.049133 -17.625401 17.878401 # CH3 IUEZ
58 20 2 0.520000 -22.289133 -18.461401 22.996801 # H IUEZ
59 20 3 -0.820000 -22.625134 -17.551401 22.979801 # O IUEZ
60 20 1 0.300000 -24.049133 -17.625401 22.986801 # CH3 IUEZ
61 21 2 0.520000 -22.289133 -13.353000 -22.978800 # H IUEZ
62 21 3 -0.820000 -22.625134 -12.443000 -22.995800 # O IUEZ
63 21 1 0.300000 -24.049133 -12.517000 -22.988800 # CH3 IUEZ
64 22 2 0.520000 -22.289133 -13.353000 -17.870399 # H IUEZ
65 22 3 -0.820000 -22.625134 -12.443000 -17.887400 # O IUEZ
66 22 1 0.300000 -24.049133 -12.517000 -17.880400 # CH3 IUEZ
67 23 2 0.520000 -22.289133 -13.353000 -12.762000 # H IUEZ
68 23 3 -0.820000 -22.625134 -12.443000 -12.779000 # O IUEZ
69 23 1 0.300000 -24.049133 -12.517000 -12.772000 # CH3 IUEZ
70 24 2 0.520000 -22.289133 -13.353000 -7.653600 # H IUEZ
71 24 3 -0.820000 -22.625134 -12.443000 -7.670600 # O IUEZ
72 24 1 0.300000 -24.049133 -12.517000 -7.663600 # CH3 IUEZ
73 25 2 0.520000 -22.289133 -13.353000 -2.545200 # H IUEZ
74 25 3 -0.820000 -22.625134 -12.443000 -2.562200 # O IUEZ
75 25 1 0.300000 -24.049133 -12.517000 -2.555200 # CH3 IUEZ
76 26 2 0.520000 -22.289133 -13.353000 2.563200 # H IUEZ
77 26 3 -0.820000 -22.625134 -12.443000 2.546200 # O IUEZ
78 26 1 0.300000 -24.049133 -12.517000 2.553200 # CH3 IUEZ
79 27 2 0.520000 -22.289133 -13.353000 7.671600 # H IUEZ
80 27 3 -0.820000 -22.625134 -12.443000 7.654600 # O IUEZ
81 27 1 0.300000 -24.049133 -12.517000 7.661600 # CH3 IUEZ
82 28 2 0.520000 -22.289133 -13.353000 12.780000 # H IUEZ
83 28 3 -0.820000 -22.625134 -12.443000 12.763000 # O IUEZ
84 28 1 0.300000 -24.049133 -12.517000 12.770000 # CH3 IUEZ
85 29 2 0.520000 -22.289133 -13.353000 17.888401 # H IUEZ
86 29 3 -0.820000 -22.625134 -12.443000 17.871401 # O IUEZ
87 29 1 0.300000 -24.049133 -12.517000 17.878401 # CH3 IUEZ
88 30 2 0.520000 -22.289133 -13.353000 22.996801 # H IUEZ
89 30 3 -0.820000 -22.625134 -12.443000 22.979801 # O IUEZ
90 30 1 0.300000 -24.049133 -12.517000 22.986801 # CH3 IUEZ
91 31 2 0.520000 -22.289133 -8.244600 -22.978800 # H IUEZ
92 31 3 -0.820000 -22.625134 -7.334600 -22.995800 # O IUEZ
93 31 1 0.300000 -24.049133 -7.408600 -22.988800 # CH3 IUEZ
94 32 2 0.520000 -22.289133 -8.244600 -17.870399 # H IUEZ
95 32 3 -0.820000 -22.625134 -7.334600 -17.887400 # O IUEZ
96 32 1 0.300000 -24.049133 -7.408600 -17.880400 # CH3 IUEZ
97 33 2 0.520000 -22.289133 -8.244600 -12.762000 # H IUEZ
98 33 3 -0.820000 -22.625134 -7.334600 -12.779000 # O IUEZ
99 33 1 0.300000 -24.049133 -7.408600 -12.772000 # CH3 IUEZ
100 34 2 0.520000 -22.289133 -8.244600 -7.653600 # H IUEZ
101 34 3 -0.820000 -22.625134 -7.334600 -7.670600 # O IUEZ
102 34 1 0.300000 -24.049133 -7.408600 -7.663600 # CH3 IUEZ
103 35 2 0.520000 -22.289133 -8.244600 -2.545200 # H IUEZ
104 35 3 -0.820000 -22.625134 -7.334600 -2.562200 # O IUEZ
105 35 1 0.300000 -24.049133 -7.408600 -2.555200 # CH3 IUEZ
106 36 2 0.520000 -22.289133 -8.244600 2.563200 # H IUEZ
107 36 3 -0.820000 -22.625134 -7.334600 2.546200 # O IUEZ
108 36 1 0.300000 -24.049133 -7.408600 2.553200 # CH3 IUEZ
109 37 2 0.520000 -22.289133 -8.244600 7.671600 # H IUEZ
110 37 3 -0.820000 -22.625134 -7.334600 7.654600 # O IUEZ
111 37 1 0.300000 -24.049133 -7.408600 7.661600 # CH3 IUEZ
112 38 2 0.520000 -22.289133 -8.244600 12.780000 # H IUEZ
113 38 3 -0.820000 -22.625134 -7.334600 12.763000 # O IUEZ
114 38 1 0.300000 -24.049133 -7.408600 12.770000 # CH3 IUEZ
115 39 2 0.520000 -22.289133 -8.244600 17.888401 # H IUEZ
116 39 3 -0.820000 -22.625134 -7.334600 17.871401 # O IUEZ
117 39 1 0.300000 -24.049133 -7.408600 17.878401 # CH3 IUEZ
118 40 2 0.520000 -22.289133 -8.244600 22.996801 # H IUEZ
119 40 3 -0.820000 -22.625134 -7.334600 22.979801 # O IUEZ
120 40 1 0.300000 -24.049133 -7.408600 22.986801 # CH3 IUEZ
121 41 2 0.520000 -22.289133 -3.136200 -22.978800 # H IUEZ
122 41 3 -0.820000 -22.625134 -2.226200 -22.995800 # O IUEZ
123 41 1 0.300000 -24.049133 -2.300200 -22.988800 # CH3 IUEZ
124 42 2 0.520000 -22.289133 -3.136200 -17.870399 # H IUEZ
125 42 3 -0.820000 -22.625134 -2.226200 -17.887400 # O IUEZ
126 42 1 0.300000 -24.049133 -2.300200 -17.880400 # CH3 IUEZ
127 43 2 0.520000 -22.289133 -3.136200 -12.762000 # H IUEZ
128 43 3 -0.820000 -22.625134 -2.226200 -12.779000 # O IUEZ
129 43 1 0.300000 -24.049133 -2.300200 -12.772000 # CH3 IUEZ
130 44 2 0.520000 -22.289133 -3.136200 -7.653600 # H IUEZ
131 44 3 -0.820000 -22.625134 -2.226200 -7.670600 # O IUEZ
132 44 1 0.300000 -24.049133 -2.300200 -7.663600 # CH3 IUEZ
133 45 2 0.520000 -22.289133 -3.136200 -2.545200 # H IUEZ
134 45 3 -0.820000 -22.625134 -2.226200 -2.562200 # O IUEZ
135 45 1 0.300000 -24.049133 -2.300200 -2.555200 # CH3 IUEZ
136 46 2 0.520000 -22.289133 -3.136200 2.563200 # H IUEZ
137 46 3 -0.820000 -22.625134 -2.226200 2.546200 # O IUEZ
138 46 1 0.300000 -24.049133 -2.300200 2.553200 # CH3 IUEZ
139 47 2 0.520000 -22.289133 -3.136200 7.671600 # H IUEZ
140 47 3 -0.820000 -22.625134 -2.226200 7.654600 # O IUEZ
141 47 1 0.300000 -24.049133 -2.300200 7.661600 # CH3 IUEZ
142 48 2 0.520000 -22.289133 -3.136200 12.780000 # H IUEZ
143 48 3 -0.820000 -22.625134 -2.226200 12.763000 # O IUEZ
144 48 1 0.300000 -24.049133 -2.300200 12.770000 # CH3 IUEZ
145 49 2 0.520000 -22.289133 -3.136200 17.888401 # H IUEZ
146 49 3 -0.820000 -22.625134 -2.226200 17.871401 # O IUEZ
147 49 1 0.300000 -24.049133 -2.300200 17.878401 # CH3 IUEZ
148 50 2 0.520000 -22.289133 -3.136200 22.996801 # H IUEZ
149 50 3 -0.820000 -22.625134 -2.226200 22.979801 # O IUEZ
150 50 1 0.300000 -24.049133 -2.300200 22.986801 # CH3 IUEZ
151 51 2 0.520000 -22.289133 1.972200 -22.978800 # H IUEZ
152 51 3 -0.820000 -22.625134 2.882200 -22.995800 # O IUEZ
153 51 1 0.300000 -24.049133 2.808200 -22.988800 # CH3 IUEZ
154 52 2 0.520000 -22.289133 1.972200 -17.870399 # H IUEZ
155 52 3 -0.820000 -22.625134 2.882200 -17.887400 # O IUEZ
156 52 1 0.300000 -24.049133 2.808200 -17.880400 # CH3 IUEZ
157 53 2 0.520000 -22.289133 1.972200 -12.762000 # H IUEZ
158 53 3 -0.820000 -22.625134 2.882200 -12.779000 # O IUEZ
159 53 1 0.300000 -24.049133 2.808200 -12.772000 # CH3 IUEZ
160 54 2 0.520000 -22.289133 1.972200 -7.653600 # H IUEZ
161 54 3 -0.820000 -22.625134 2.882200 -7.670600 # O IUEZ
162 54 1 0.300000 -24.049133 2.808200 -7.663600 # CH3 IUEZ
163 55 2 0.520000 -22.289133 1.972200 -2.545200 # H IUEZ
164 55 3 -0.820000 -22.625134 2.882200 -2.562200 # O IUEZ
165 55 1 0.300000 -24.049133 2.808200 -2.555200 # CH3 IUEZ
166 56 2 0.520000 -22.289133 1.972200 2.563200 # H IUEZ
167 56 3 -0.820000 -22.625134 2.882200 2.546200 # O IUEZ
168 56 1 0.300000 -24.049133 2.808200 2.553200 # CH3 IUEZ
169 57 2 0.520000 -22.289133 1.972200 7.671600 # H IUEZ
170 57 3 -0.820000 -22.625134 2.882200 7.654600 # O IUEZ
171 57 1 0.300000 -24.049133 2.808200 7.661600 # CH3 IUEZ
172 58 2 0.520000 -22.289133 1.972200 12.780000 # H IUEZ
173 58 3 -0.820000 -22.625134 2.882200 12.763000 # O IUEZ
174 58 1 0.300000 -24.049133 2.808200 12.770000 # CH3 IUEZ
175 59 2 0.520000 -22.289133 1.972200 17.888401 # H IUEZ
176 59 3 -0.820000 -22.625134 2.882200 17.871401 # O IUEZ
177 59 1 0.300000 -24.049133 2.808200 17.878401 # CH3 IUEZ
178 60 2 0.520000 -22.289133 1.972200 22.996801 # H IUEZ
179 60 3 -0.820000 -22.625134 2.882200 22.979801 # O IUEZ
180 60 1 0.300000 -24.049133 2.808200 22.986801 # CH3 IUEZ
181 61 2 0.520000 -22.289133 7.080600 -22.978800 # H IUEZ
182 61 3 -0.820000 -22.625134 7.990600 -22.995800 # O IUEZ
183 61 1 0.300000 -24.049133 7.916600 -22.988800 # CH3 IUEZ
184 62 2 0.520000 -22.289133 7.080600 -17.870399 # H IUEZ
185 62 3 -0.820000 -22.625134 7.990600 -17.887400 # O IUEZ
186 62 1 0.300000 -24.049133 7.916600 -17.880400 # CH3 IUEZ
187 63 2 0.520000 -22.289133 7.080600 -12.762000 # H IUEZ
188 63 3 -0.820000 -22.625134 7.990600 -12.779000 # O IUEZ
189 63 1 0.300000 -24.049133 7.916600 -12.772000 # CH3 IUEZ
190 64 2 0.520000 -22.289133 7.080600 -7.653600 # H IUEZ
191 64 3 -0.820000 -22.625134 7.990600 -7.670600 # O IUEZ
192 64 1 0.300000 -24.049133 7.916600 -7.663600 # CH3 IUEZ
193 65 2 0.520000 -22.289133 7.080600 -2.545200 # H IUEZ
194 65 3 -0.820000 -22.625134 7.990600 -2.562200 # O IUEZ
195 65 1 0.300000 -24.049133 7.916600 -2.555200 # CH3 IUEZ
196 66 2 0.520000 -22.289133 7.080600 2.563200 # H IUEZ
197 66 3 -0.820000 -22.625134 7.990600 2.546200 # O IUEZ
198 66 1 0.300000 -24.049133 7.916600 2.553200 # CH3 IUEZ
199 67 2 0.520000 -22.289133 7.080600 7.671600 # H IUEZ
200 67 3 -0.820000 -22.625134 7.990600 7.654600 # O IUEZ
201 67 1 0.300000 -24.049133 7.916600 7.661600 # CH3 IUEZ
202 68 2 0.520000 -22.289133 7.080600 12.780000 # H IUEZ
203 68 3 -0.820000 -22.625134 7.990600 12.763000 # O IUEZ
204 68 1 0.300000 -24.049133 7.916600 12.770000 # CH3 IUEZ
205 69 2 0.520000 -22.289133 7.080600 17.888401 # H IUEZ
206 69 3 -0.820000 -22.625134 7.990600 17.871401 # O IUEZ
207 69 1 0.300000 -24.049133 7.916600 17.878401 # CH3 IUEZ
208 70 2 0.520000 -22.289133 7.080600 22.996801 # H IUEZ
209 70 3 -0.820000 -22.625134 7.990600 22.979801 # O IUEZ
210 70 1 0.300000 -24.049133 7.916600 22.986801 # CH3 IUEZ
211 71 2 0.520000 -22.289133 12.189000 -22.978800 # H IUEZ
212 71 3 -0.820000 -22.625134 13.099000 -22.995800 # O IUEZ
213 71 1 0.300000 -24.049133 13.025000 -22.988800 # CH3 IUEZ
214 72 2 0.520000 -22.289133 12.189000 -17.870399 # H IUEZ
215 72 3 -0.820000 -22.625134 13.099000 -17.887400 # O IUEZ
216 72 1 0.300000 -24.049133 13.025000 -17.880400 # CH3 IUEZ
217 73 2 0.520000 -22.289133 12.189000 -12.762000 # H IUEZ
218 73 3 -0.820000 -22.625134 13.099000 -12.779000 # O IUEZ
219 73 1 0.300000 -24.049133 13.025000 -12.772000 # CH3 IUEZ
220 74 2 0.520000 -22.289133 12.189000 -7.653600 # H IUEZ
221 74 3 -0.820000 -22.625134 13.099000 -7.670600 # O IUEZ
222 74 1 0.300000 -24.049133 13.025000 -7.663600 # CH3 IUEZ
223 75 2 0.520000 -22.289133 12.189000 -2.545200 # H IUEZ
224 75 3 -0.820000 -22.625134 13.099000 -2.562200 # O IUEZ
225 75 1 0.300000 -24.049133 13.025000 -2.555200 # CH3 IUEZ
226 76 2 0.520000 -22.289133 12.189000 2.563200 # H IUEZ
227 76 3 -0.820000 -22.625134 13.099000 2.546200 # O IUEZ
228 76 1 0.300000 -24.049133 13.025000 2.553200 # CH3 IUEZ
229 77 2 0.520000 -22.289133 12.189000 7.671600 # H IUEZ
230 77 3 -0.820000 -22.625134 13.099000 7.654600 # O IUEZ
231 77 1 0.300000 -24.049133 13.025000 7.661600 # CH3 IUEZ
232 78 2 0.520000 -22.289133 12.189000 12.780000 # H IUEZ
233 78 3 -0.820000 -22.625134 13.099000 12.763000 # O IUEZ
234 78 1 0.300000 -24.049133 13.025000 12.770000 # CH3 IUEZ
235 79 2 0.520000 -22.289133 12.189000 17.888401 # H IUEZ
236 79 3 -0.820000 -22.625134 13.099000 17.871401 # O IUEZ
237 79 1 0.300000 -24.049133 13.025000 17.878401 # CH3 IUEZ
238 80 2 0.520000 -22.289133 12.189000 22.996801 # H IUEZ
239 80 3 -0.820000 -22.625134 13.099000 22.979801 # O IUEZ
240 80 1 0.300000 -24.049133 13.025000 22.986801 # CH3 IUEZ
241 81 2 0.520000 -22.289133 17.297400 -22.978800 # H IUEZ
242 81 3 -0.820000 -22.625134 18.207399 -22.995800 # O IUEZ
243 81 1 0.300000 -24.049133 18.133400 -22.988800 # CH3 IUEZ
244 82 2 0.520000 -22.289133 17.297400 -17.870399 # H IUEZ
245 82 3 -0.820000 -22.625134 18.207399 -17.887400 # O IUEZ
246 82 1 0.300000 -24.049133 18.133400 -17.880400 # CH3 IUEZ
247 83 2 0.520000 -22.289133 17.297400 -12.762000 # H IUEZ
248 83 3 -0.820000 -22.625134 18.207399 -12.779000 # O IUEZ
249 83 1 0.300000 -24.049133 18.133400 -12.772000 # CH3 IUEZ
250 84 2 0.520000 -22.289133 17.297400 -7.653600 # H IUEZ
251 84 3 -0.820000 -22.625134 18.207399 -7.670600 # O IUEZ
252 84 1 0.300000 -24.049133 18.133400 -7.663600 # CH3 IUEZ
253 85 2 0.520000 -22.289133 17.297400 -2.545200 # H IUEZ
254 85 3 -0.820000 -22.625134 18.207399 -2.562200 # O IUEZ
255 85 1 0.300000 -24.049133 18.133400 -2.555200 # CH3 IUEZ
256 86 2 0.520000 -22.289133 17.297400 2.563200 # H IUEZ
257 86 3 -0.820000 -22.625134 18.207399 2.546200 # O IUEZ
258 86 1 0.300000 -24.049133 18.133400 2.553200 # CH3 IUEZ
259 87 2 0.520000 -22.289133 17.297400 7.671600 # H IUEZ
260 87 3 -0.820000 -22.625134 18.207399 7.654600 # O IUEZ
261 87 1 0.300000 -24.049133 18.133400 7.661600 # CH3 IUEZ
262 88 2 0.520000 -22.289133 17.297400 12.780000 # H IUEZ
263 88 3 -0.820000 -22.625134 18.207399 12.763000 # O IUEZ
264 88 1 0.300000 -24.049133 18.133400 12.770000 # CH3 IUEZ
265 89 2 0.520000 -22.289133 17.297400 17.888401 # H IUEZ
266 89 3 -0.820000 -22.625134 18.207399 17.871401 # O IUEZ
267 89 1 0.300000 -24.049133 18.133400 17.878401 # CH3 IUEZ
268 90 2 0.520000 -22.289133 17.297400 22.996801 # H IUEZ
269 90 3 -0.820000 -22.625134 18.207399 22.979801 # O IUEZ
270 90 1 0.300000 -24.049133 18.133400 22.986801 # CH3 IUEZ
271 91 2 0.520000 -22.289133 22.405800 -22.978800 # H IUEZ
272 91 3 -0.820000 -22.625134 23.315800 -22.995800 # O IUEZ
273 91 1 0.300000 -24.049133 23.241800 -22.988800 # CH3 IUEZ
274 92 2 0.520000 -22.289133 22.405800 -17.870399 # H IUEZ
275 92 3 -0.820000 -22.625134 23.315800 -17.887400 # O IUEZ
276 92 1 0.300000 -24.049133 23.241800 -17.880400 # CH3 IUEZ
277 93 2 0.520000 -22.289133 22.405800 -12.762000 # H IUEZ
278 93 3 -0.820000 -22.625134 23.315800 -12.779000 # O IUEZ
279 93 1 0.300000 -24.049133 23.241800 -12.772000 # CH3 IUEZ
280 94 2 0.520000 -22.289133 22.405800 -7.653600 # H IUEZ
281 94 3 -0.820000 -22.625134 23.315800 -7.670600 # O IUEZ
282 94 1 0.300000 -24.049133 23.241800 -7.663600 # CH3 IUEZ
283 95 2 0.520000 -22.289133 22.405800 -2.545200 # H IUEZ
284 95 3 -0.820000 -22.625134 23.315800 -2.562200 # O IUEZ
285 95 1 0.300000 -24.049133 23.241800 -2.555200 # CH3 IUEZ
286 96 2 0.520000 -22.289133 22.405800 2.563200 # H IUEZ
287 96 3 -0.820000 -22.625134 23.315800 2.546200 # O IUEZ
288 96 1 0.300000 -24.049133 23.241800 2.553200 # CH3 IUEZ
289 97 2 0.520000 -22.289133 22.405800 7.671600 # H IUEZ
290 97 3 -0.820000 -22.625134 23.315800 7.654600 # O IUEZ
291 97 1 0.300000 -24.049133 23.241800 7.661600 # CH3 IUEZ
292 98 2 0.520000 -22.289133 22.405800 12.780000 # H IUEZ
293 98 3 -0.820000 -22.625134 23.315800 12.763000 # O IUEZ
294 98 1 0.300000 -24.049133 23.241800 12.770000 # CH3 IUEZ
295 99 2 0.520000 -22.289133 22.405800 17.888401 # H IUEZ
296 99 3 -0.820000 -22.625134 23.315800 17.871401 # O IUEZ
297 99 1 0.300000 -24.049133 23.241800 17.878401 # CH3 IUEZ
298 100 2 0.520000 -22.289133 22.405800 22.996801 # H IUEZ
299 100 3 -0.820000 -22.625134 23.315800 22.979801 # O IUEZ
300 100 1 0.300000 -24.049133 23.241800 22.986801 # CH3 IUEZ
301 101 2 0.520000 -17.180733 -23.569801 -22.978800 # H IUEZ
302 101 3 -0.820000 -17.516733 -22.659801 -22.995800 # O IUEZ
303 101 1 0.300000 -18.940733 -22.733801 -22.988800 # CH3 IUEZ
304 102 2 0.520000 -17.180733 -23.569801 -17.870399 # H IUEZ
305 102 3 -0.820000 -17.516733 -22.659801 -17.887400 # O IUEZ
306 102 1 0.300000 -18.940733 -22.733801 -17.880400 # CH3 IUEZ
307 103 2 0.520000 -17.180733 -23.569801 -12.762000 # H IUEZ
308 103 3 -0.820000 -17.516733 -22.659801 -12.779000 # O IUEZ
309 103 1 0.300000 -18.940733 -22.733801 -12.772000 # CH3 IUEZ
310 104 2 0.520000 -17.180733 -23.569801 -7.653600 # H IUEZ
311 104 3 -0.820000 -17.516733 -22.659801 -7.670600 # O IUEZ
312 104 1 0.300000 -18.940733 -22.733801 -7.663600 # CH3 IUEZ
313 105 2 0.520000 -17.180733 -23.569801 -2.545200 # H IUEZ
314 105 3 -0.820000 -17.516733 -22.659801 -2.562200 # O IUEZ
315 105 1 0.300000 -18.940733 -22.733801 -2.555200 # CH3 IUEZ
316 106 2 0.520000 -17.180733 -23.569801 2.563200 # H IUEZ
317 106 3 -0.820000 -17.516733 -22.659801 2.546200 # O IUEZ
318 106 1 0.300000 -18.940733 -22.733801 2.553200 # CH3 IUEZ
319 107 2 0.520000 -17.180733 -23.569801 7.671600 # H IUEZ
320 107 3 -0.820000 -17.516733 -22.659801 7.654600 # O IUEZ
321 107 1 0.300000 -18.940733 -22.733801 7.661600 # CH3 IUEZ
322 108 2 0.520000 -17.180733 -23.569801 12.780000 # H IUEZ
323 108 3 -0.820000 -17.516733 -22.659801 12.763000 # O IUEZ
324 108 1 0.300000 -18.940733 -22.733801 12.770000 # CH3 IUEZ
325 109 2 0.520000 -17.180733 -23.569801 17.888401 # H IUEZ
326 109 3 -0.820000 -17.516733 -22.659801 17.871401 # O IUEZ
327 109 1 0.300000 -18.940733 -22.733801 17.878401 # CH3 IUEZ
328 110 2 0.520000 -17.180733 -23.569801 22.996801 # H IUEZ
329 110 3 -0.820000 -17.516733 -22.659801 22.979801 # O IUEZ
330 110 1 0.300000 -18.940733 -22.733801 22.986801 # CH3 IUEZ
331 111 2 0.520000 -17.180733 -18.461401 -22.978800 # H IUEZ
332 111 3 -0.820000 -17.516733 -17.551401 -22.995800 # O IUEZ
333 111 1 0.300000 -18.940733 -17.625401 -22.988800 # CH3 IUEZ
334 112 2 0.520000 -17.180733 -18.461401 -17.870399 # H IUEZ
335 112 3 -0.820000 -17.516733 -17.551401 -17.887400 # O IUEZ
336 112 1 0.300000 -18.940733 -17.625401 -17.880400 # CH3 IUEZ
337 113 2 0.520000 -17.180733 -18.461401 -12.762000 # H IUEZ
338 113 3 -0.820000 -17.516733 -17.551401 -12.779000 # O IUEZ
339 113 1 0.300000 -18.940733 -17.625401 -12.772000 # CH3 IUEZ
340 114 2 0.520000 -17.180733 -18.461401 -7.653600 # H IUEZ
341 114 3 -0.820000 -17.516733 -17.551401 -7.670600 # O IUEZ
342 114 1 0.300000 -18.940733 -17.625401 -7.663600 # CH3 IUEZ
343 115 2 0.520000 -17.180733 -18.461401 -2.545200 # H IUEZ
344 115 3 -0.820000 -17.516733 -17.551401 -2.562200 # O IUEZ
345 115 1 0.300000 -18.940733 -17.625401 -2.555200 # CH3 IUEZ
346 116 2 0.520000 -17.180733 -18.461401 2.563200 # H IUEZ
347 116 3 -0.820000 -17.516733 -17.551401 2.546200 # O IUEZ
348 116 1 0.300000 -18.940733 -17.625401 2.553200 # CH3 IUEZ
349 117 2 0.520000 -17.180733 -18.461401 7.671600 # H IUEZ
350 117 3 -0.820000 -17.516733 -17.551401 7.654600 # O IUEZ
351 117 1 0.300000 -18.940733 -17.625401 7.661600 # CH3 IUEZ
352 118 2 0.520000 -17.180733 -18.461401 12.780000 # H IUEZ
353 118 3 -0.820000 -17.516733 -17.551401 12.763000 # O IUEZ
354 118 1 0.300000 -18.940733 -17.625401 12.770000 # CH3 IUEZ
355 119 2 0.520000 -17.180733 -18.461401 17.888401 # H IUEZ
356 119 3 -0.820000 -17.516733 -17.551401 17.871401 # O IUEZ
357 119 1 0.300000 -18.940733 -17.625401 17.878401 # CH3 IUEZ
358 120 2 0.520000 -17.180733 -18.461401 22.996801 # H IUEZ
359 120 3 -0.820000 -17.516733 -17.551401 22.979801 # O IUEZ
360 120 1 0.300000 -18.940733 -17.625401 22.986801 # CH3 IUEZ
361 121 2 0.520000 -17.180733 -13.353000 -22.978800 # H IUEZ
362 121 3 -0.820000 -17.516733 -12.443000 -22.995800 # O IUEZ
363 121 1 0.300000 -18.940733 -12.517000 -22.988800 # CH3 IUEZ
364 122 2 0.520000 -17.180733 -13.353000 -17.870399 # H IUEZ
365 122 3 -0.820000 -17.516733 -12.443000 -17.887400 # O IUEZ
366 122 1 0.300000 -18.940733 -12.517000 -17.880400 # CH3 IUEZ
367 123 2 0.520000 -17.180733 -13.353000 -12.762000 # H IUEZ
368 123 3 -0.820000 -17.516733 -12.443000 -12.779000 # O IUEZ
369 123 1 0.300000 -18.940733 -12.517000 -12.772000 # CH3 IUEZ
370 124 2 0.520000 -17.180733 -13.353000 -7.653600 # H IUEZ
371 124 3 -0.820000 -17.516733 -12.443000 -7.670600 # O IUEZ
372 124 1 0.300000 -18.940733 -12.517000 -7.663600 # CH3 IUEZ
373 125 2 0.520000 -17.180733 -13.353000 -2.545200 # H IUEZ
374 125 3 -0.820000 -17.516733 -12.443000 -2.562200 # O IUEZ
375 125 1 0.300000 -18.940733 -12.517000 -2.555200 # CH3 IUEZ
376 126 2 0.520000 -17.180733 -13.353000 2.563200 # H IUEZ
377 126 3 -0.820000 -17.516733 -12.443000 2.546200 # O IUEZ
378 126 1 0.300000 -18.940733 -12.517000 2.553200 # CH3 IUEZ
379 127 2 0.520000 -17.180733 -13.353000 7.671600 # H IUEZ
380 127 3 -0.820000 -17.516733 -12.443000 7.654600 # O IUEZ
381 127 1 0.300000 -18.940733 -12.517000 7.661600 # CH3 IUEZ
382 128 2 0.520000 -17.180733 -13.353000 12.780000 # H IUEZ
383 128 3 -0.820000 -17.516733 -12.443000 12.763000 # O IUEZ
384 128 1 0.300000 -18.940733 -12.517000 12.770000 # CH3 IUEZ
385 129 2 0.520000 -17.180733 -13.353000 17.888401 # H IUEZ
386 129 3 -0.820000 -17.516733 -12.443000 17.871401 # O IUEZ
387 129 1 0.300000 -18.940733 -12.517000 17.878401 # CH3 IUEZ
388 130 2 0.520000 -17.180733 -13.353000 22.996801 # H IUEZ
389 130 3 -0.820000 -17.516733 -12.443000 22.979801 # O IUEZ
390 130 1 0.300000 -18.940733 -12.517000 22.986801 # CH3 IUEZ
391 131 2 0.520000 -17.180733 -8.244600 -22.978800 # H IUEZ
392 131 3 -0.820000 -17.516733 -7.334600 -22.995800 # O IUEZ
393 131 1 0.300000 -18.940733 -7.408600 -22.988800 # CH3 IUEZ
394 132 2 0.520000 -17.180733 -8.244600 -17.870399 # H IUEZ
395 132 3 -0.820000 -17.516733 -7.334600 -17.887400 # O IUEZ
396 132 1 0.300000 -18.940733 -7.408600 -17.880400 # CH3 IUEZ
397 133 2 0.520000 -17.180733 -8.244600 -12.762000 # H IUEZ
398 133 3 -0.820000 -17.516733 -7.334600 -12.779000 # O IUEZ
399 133 1 0.300000 -18.940733 -7.408600 -12.772000 # CH3 IUEZ
400 134 2 0.520000 -17.180733 -8.244600 -7.653600 # H IUEZ
401 134 3 -0.820000 -17.516733 -7.334600 -7.670600 # O IUEZ
402 134 1 0.300000 -18.940733 -7.408600 -7.663600 # CH3 IUEZ
403 135 2 0.520000 -17.180733 -8.244600 -2.545200 # H IUEZ
404 135 3 -0.820000 -17.516733 -7.334600 -2.562200 # O IUEZ
405 135 1 0.300000 -18.940733 -7.408600 -2.555200 # CH3 IUEZ
406 136 2 0.520000 -17.180733 -8.244600 2.563200 # H IUEZ
407 136 3 -0.820000 -17.516733 -7.334600 2.546200 # O IUEZ
408 136 1 0.300000 -18.940733 -7.408600 2.553200 # CH3 IUEZ
409 137 2 0.520000 -17.180733 -8.244600 7.671600 # H IUEZ
410 137 3 -0.820000 -17.516733 -7.334600 7.654600 # O IUEZ
411 137 1 0.300000 -18.940733 -7.408600 7.661600 # CH3 IUEZ
412 138 2 0.520000 -17.180733 -8.244600 12.780000 # H IUEZ
413 138 3 -0.820000 -17.516733 -7.334600 12.763000 # O IUEZ
414 138 1 0.300000 -18.940733 -7.408600 12.770000 # CH3 IUEZ
415 139 2 0.520000 -17.180733 -8.244600 17.888401 # H IUEZ
416 139 3 -0.820000 -17.516733 -7.334600 17.871401 # O IUEZ
417 139 1 0.300000 -18.940733 -7.408600 17.878401 # CH3 IUEZ
418 140 2 0.520000 -17.180733 -8.244600 22.996801 # H IUEZ
419 140 3 -0.820000 -17.516733 -7.334600 22.979801 # O IUEZ
420 140 1 0.300000 -18.940733 -7.408600 22.986801 # CH3 IUEZ
421 141 2 0.520000 -17.180733 -3.136200 -22.978800 # H IUEZ
422 141 3 -0.820000 -17.516733 -2.226200 -22.995800 # O IUEZ
423 141 1 0.300000 -18.940733 -2.300200 -22.988800 # CH3 IUEZ
424 142 2 0.520000 -17.180733 -3.136200 -17.870399 # H IUEZ
425 142 3 -0.820000 -17.516733 -2.226200 -17.887400 # O IUEZ
426 142 1 0.300000 -18.940733 -2.300200 -17.880400 # CH3 IUEZ
427 143 2 0.520000 -17.180733 -3.136200 -12.762000 # H IUEZ
428 143 3 -0.820000 -17.516733 -2.226200 -12.779000 # O IUEZ
429 143 1 0.300000 -18.940733 -2.300200 -12.772000 # CH3 IUEZ
430 144 2 0.520000 -17.180733 -3.136200 -7.653600 # H IUEZ
431 144 3 -0.820000 -17.516733 -2.226200 -7.670600 # O IUEZ
432 144 1 0.300000 -18.940733 -2.300200 -7.663600 # CH3 IUEZ
433 145 2 0.520000 -17.180733 -3.136200 -2.545200 # H IUEZ
434 145 3 -0.820000 -17.516733 -2.226200 -2.562200 # O IUEZ
435 145 1 0.300000 -18.940733 -2.300200 -2.555200 # CH3 IUEZ
436 146 2 0.520000 -17.180733 -3.136200 2.563200 # H IUEZ
437 146 3 -0.820000 -17.516733 -2.226200 2.546200 # O IUEZ
438 146 1 0.300000 -18.940733 -2.300200 2.553200 # CH3 IUEZ
439 147 2 0.520000 -17.180733 -3.136200 7.671600 # H IUEZ
440 147 3 -0.820000 -17.516733 -2.226200 7.654600 # O IUEZ
441 147 1 0.300000 -18.940733 -2.300200 7.661600 # CH3 IUEZ
442 148 2 0.520000 -17.180733 -3.136200 12.780000 # H IUEZ
443 148 3 -0.820000 -17.516733 -2.226200 12.763000 # O IUEZ
444 148 1 0.300000 -18.940733 -2.300200 12.770000 # CH3 IUEZ
445 149 2 0.520000 -17.180733 -3.136200 17.888401 # H IUEZ
446 149 3 -0.820000 -17.516733 -2.226200 17.871401 # O IUEZ
447 149 1 0.300000 -18.940733 -2.300200 17.878401 # CH3 IUEZ
448 150 2 0.520000 -17.180733 -3.136200 22.996801 # H IUEZ
449 150 3 -0.820000 -17.516733 -2.226200 22.979801 # O IUEZ
450 150 1 0.300000 -18.940733 -2.300200 22.986801 # CH3 IUEZ
451 151 2 0.520000 -17.180733 1.972200 -22.978800 # H IUEZ
452 151 3 -0.820000 -17.516733 2.882200 -22.995800 # O IUEZ
453 151 1 0.300000 -18.940733 2.808200 -22.988800 # CH3 IUEZ
454 152 2 0.520000 -17.180733 1.972200 -17.870399 # H IUEZ
455 152 3 -0.820000 -17.516733 2.882200 -17.887400 # O IUEZ
456 152 1 0.300000 -18.940733 2.808200 -17.880400 # CH3 IUEZ
457 153 2 0.520000 -17.180733 1.972200 -12.762000 # H IUEZ
458 153 3 -0.820000 -17.516733 2.882200 -12.779000 # O IUEZ
459 153 1 0.300000 -18.940733 2.808200 -12.772000 # CH3 IUEZ
460 154 2 0.520000 -17.180733 1.972200 -7.653600 # H IUEZ
461 154 3 -0.820000 -17.516733 2.882200 -7.670600 # O IUEZ
462 154 1 0.300000 -18.940733 2.808200 -7.663600 # CH3 IUEZ
463 155 2 0.520000 -17.180733 1.972200 -2.545200 # H IUEZ
464 155 3 -0.820000 -17.516733 2.882200 -2.562200 # O IUEZ
465 155 1 0.300000 -18.940733 2.808200 -2.555200 # CH3 IUEZ
466 156 2 0.520000 -17.180733 1.972200 2.563200 # H IUEZ
467 156 3 -0.820000 -17.516733 2.882200 2.546200 # O IUEZ
468 156 1 0.300000 -18.940733 2.808200 2.553200 # CH3 IUEZ
469 157 2 0.520000 -17.180733 1.972200 7.671600 # H IUEZ
470 157 3 -0.820000 -17.516733 2.882200 7.654600 # O IUEZ
471 157 1 0.300000 -18.940733 2.808200 7.661600 # CH3 IUEZ
472 158 2 0.520000 -17.180733 1.972200 12.780000 # H IUEZ
473 158 3 -0.820000 -17.516733 2.882200 12.763000 # O IUEZ
474 158 1 0.300000 -18.940733 2.808200 12.770000 # CH3 IUEZ
475 159 2 0.520000 -17.180733 1.972200 17.888401 # H IUEZ
476 159 3 -0.820000 -17.516733 2.882200 17.871401 # O IUEZ
477 159 1 0.300000 -18.940733 2.808200 17.878401 # CH3 IUEZ
478 160 2 0.520000 -17.180733 1.972200 22.996801 # H IUEZ
479 160 3 -0.820000 -17.516733 2.882200 22.979801 # O IUEZ
480 160 1 0.300000 -18.940733 2.808200 22.986801 # CH3 IUEZ
481 161 2 0.520000 -17.180733 7.080600 -22.978800 # H IUEZ
482 161 3 -0.820000 -17.516733 7.990600 -22.995800 # O IUEZ
483 161 1 0.300000 -18.940733 7.916600 -22.988800 # CH3 IUEZ
484 162 2 0.520000 -17.180733 7.080600 -17.870399 # H IUEZ
485 162 3 -0.820000 -17.516733 7.990600 -17.887400 # O IUEZ
486 162 1 0.300000 -18.940733 7.916600 -17.880400 # CH3 IUEZ
487 163 2 0.520000 -17.180733 7.080600 -12.762000 # H IUEZ